 00
GAUSSIAN              5 MOL ORBITALS    126 PRIMITIVES        3 NUCLEI   B3LYP   B3LYP   B3LYP   B3LYP
  O    1    (CENTRE  1)  -0.09448631  0.00000000  0.00815606  CHARGE =  8.0
  H    2    (CENTRE  2)   0.00000000 -1.44255835 -1.09730160  CHARGE =  1.0
  H    3    (CENTRE  3)   0.00000000  1.44255835 -1.09730160  CHARGE =  1.0
CENTRE ASSIGNMENTS    1  1  1  1  1  1  1  1  1  1  1  1  1  1  1  1  1  1  1  1
CENTRE ASSIGNMENTS    1  1  1  1  1  1  1  1  1  1  1  1  1  1  1  1  1  1  1  1
CENTRE ASSIGNMENTS    1  1  1  1  1  1  1  1  1  1  1  1  1  1  1  1  1  1  1  1
CENTRE ASSIGNMENTS    1  1  1  1  1  1  1  1  1  1  1  1  2  2  2  2  2  2  2  2
CENTRE ASSIGNMENTS    2  2  2  2  2  2  2  2  2  2  2  2  2  2  2  2  2  2  2  3
CENTRE ASSIGNMENTS    3  3  3  3  3  3  3  3  3  3  3  3  3  3  3  3  3  3  3  3
CENTRE ASSIGNMENTS    3  3  3  3  3  3
TYPE ASSIGNMENTS      1  1  1  1  1  1  1  1  1  1  1  1  1  1  1  1  2  2  2  3
TYPE ASSIGNMENTS      3  3  4  4  4  2  3  4  2  3  4  2  3  4  5  6  7  8  9 10
TYPE ASSIGNMENTS      5  6  7  8  9 10  5  6  7  8  9 10 11 12 13 17 14 15 18 19
TYPE ASSIGNMENTS     16 20 11 12 13 17 14 15 18 19 16 20  1  1  1  1  1  1  2  3
TYPE ASSIGNMENTS      4  2  3  4  2  3  4  5  6  7  8  9 10  5  6  7  8  9 10  1
TYPE ASSIGNMENTS      1  1  1  1  1  2  3  4  2  3  4  2  3  4  5  6  7  8  9 10
TYPE ASSIGNMENTS      5  6  7  8  9 10
EXPONENTS  0.1533000D+05 0.2299000D+04 0.5224000D+03 0.1473000D+03 0.4755000D+02
EXPONENTS  0.1676000D+02 0.6207000D+01 0.5224000D+03 0.1473000D+03 0.4755000D+02
EXPONENTS  0.1676000D+02 0.6207000D+01 0.6882000D+00 0.1752000D+01 0.2384000D+00
EXPONENTS  0.7376000D-01 0.3446000D+02 0.7749000D+01 0.2280000D+01 0.3446000D+02
EXPONENTS  0.7749000D+01 0.2280000D+01 0.3446000D+02 0.7749000D+01 0.2280000D+01
EXPONENTS  0.7156000D+00 0.7156000D+00 0.7156000D+00 0.2140000D+00 0.2140000D+00
EXPONENTS  0.2140000D+00 0.5974000D-01 0.5974000D-01 0.5974000D-01 0.2314000D+01
EXPONENTS  0.2314000D+01 0.2314000D+01 0.2314000D+01 0.2314000D+01 0.2314000D+01
EXPONENTS  0.6450000D+00 0.6450000D+00 0.6450000D+00 0.6450000D+00 0.6450000D+00
EXPONENTS  0.6450000D+00 0.2140000D+00 0.2140000D+00 0.2140000D+00 0.2140000D+00
EXPONENTS  0.2140000D+00 0.2140000D+00 0.1428000D+01 0.1428000D+01 0.1428000D+01
EXPONENTS  0.1428000D+01 0.1428000D+01 0.1428000D+01 0.1428000D+01 0.1428000D+01
EXPONENTS  0.1428000D+01 0.1428000D+01 0.5000000D+00 0.5000000D+00 0.5000000D+00
EXPONENTS  0.5000000D+00 0.5000000D+00 0.5000000D+00 0.5000000D+00 0.5000000D+00
EXPONENTS  0.5000000D+00 0.5000000D+00 0.3387000D+02 0.5095000D+01 0.1159000D+01
EXPONENTS  0.3258000D+00 0.1027000D+00 0.2526000D-01 0.1407000D+01 0.1407000D+01
EXPONENTS  0.1407000D+01 0.3880000D+00 0.3880000D+00 0.3880000D+00 0.1020000D+00
EXPONENTS  0.1020000D+00 0.1020000D+00 0.1057000D+01 0.1057000D+01 0.1057000D+01
EXPONENTS  0.1057000D+01 0.1057000D+01 0.1057000D+01 0.2470000D+00 0.2470000D+00
EXPONENTS  0.2470000D+00 0.2470000D+00 0.2470000D+00 0.2470000D+00 0.3387000D+02
EXPONENTS  0.5095000D+01 0.1159000D+01 0.3258000D+00 0.1027000D+00 0.2526000D-01
EXPONENTS  0.1407000D+01 0.1407000D+01 0.1407000D+01 0.3880000D+00 0.3880000D+00
EXPONENTS  0.3880000D+00 0.1020000D+00 0.1020000D+00 0.1020000D+00 0.1057000D+01
EXPONENTS  0.1057000D+01 0.1057000D+01 0.1057000D+01 0.1057000D+01 0.1057000D+01
EXPONENTS  0.2470000D+00 0.2470000D+00 0.2470000D+00 0.2470000D+00 0.2470000D+00
EXPONENTS  0.2470000D+00
MO    1     MO 0.0        OCC NO =    2.0000000  ORB. ENERGY =    0.000000
  0.47704100D+00  0.88912599D+00  0.15076381D+01  0.22816499D+01  0.28461784D+01
  0.24424445D+01  0.93532649D+00  0.75594048D-03  0.81107453D-02  0.29897734D-01
  0.87419221D-01  0.10534441D+00 -0.12689851D+00 -0.21588884D-01 -0.23746297D-01
 -0.38392986D-03 -0.18155844D+00 -0.17605061D+00 -0.11876270D+00 -0.36689701D-01
 -0.35576668D-01 -0.23999810D-01  0.27436536D+00  0.26604211D+00  0.17947044D+00
 -0.40989976D-01 -0.75963751D-02  0.61803355D-01 -0.63328759D-02 -0.71799483D-03
  0.53664949D-02 -0.19674807D-03 -0.71540646D-05  0.98436995D-04  0.14397650D-01
 -0.72573277D-02 -0.71403218D-02 -0.29286752D-03  0.10253714D-01  0.34267609D-02
  0.33843819D-02 -0.98645996D-03 -0.23979220D-02 -0.38386838D-04  0.26857674D-02
  0.44908044D-03 -0.13487437D-03  0.25211108D-03 -0.11723671D-03  0.21248967D-05
  0.10912700D-03 -0.24878850D-04  0.13355065D-02 -0.17143267D-03 -0.25118867D-03
 -0.24150958D-02  0.37344753D-03 -0.43270188D-02 -0.15914237D-02  0.14085049D-03
  0.50805849D-02  0.40072305D-04  0.63780914D-04 -0.30093538D-05  0.11793028D-03
 -0.48616849D-04  0.21489779D-04 -0.33441112D-03 -0.14272589D-03 -0.12461717D-04
 -0.19379714D-04  0.58477297D-05 -0.12659557D-01 -0.22832032D-01 -0.33665818D-01
 -0.15459322D-01 -0.40894805D-03  0.12523889D-04 -0.15727162D-02 -0.13685907D-01
 -0.72055646D-02 -0.10739376D-02 -0.33428615D-02 -0.13741709D-02 -0.19852599D-03
  0.78185371D-04  0.17116160D-03  0.24960655D-02 -0.26943354D-02  0.19826986D-03
 -0.50718774D-03 -0.42147454D-03 -0.68031644D-02  0.38939937D-05 -0.94174647D-05
  0.55234710D-05 -0.12278244D-03 -0.72011257D-04  0.10315626D-03 -0.14543736D-01
 -0.26230227D-01 -0.38676454D-01 -0.18940630D-01 -0.82851788D-03  0.18450280D-04
 -0.14540933D-02  0.14732708D-01 -0.85934269D-02 -0.10263649D-02  0.37251541D-02
 -0.19307150D-02 -0.19770217D-03 -0.91965917D-04  0.16150339D-03  0.28494434D-02
 -0.28743033D-02  0.24859981D-04  0.41666069D-03 -0.33075803D-03  0.78621871D-02
  0.68810671D-05 -0.20499189D-05 -0.48311482D-05  0.12024786D-03 -0.69712245D-04
 -0.73463138D-04
MO    2     MO 0.0        OCC NO =    2.0000000  ORB. ENERGY =    0.000000
  0.15561144D+00  0.29003413D+00  0.49179363D+00  0.74427736D+00  0.92842734D+00
  0.79672878D+00  0.30510480D+00 -0.30127233D-03 -0.32324544D-02 -0.11915435D-01
 -0.34840034D-01 -0.41983935D-01  0.50574099D-01  0.49077749D-01 -0.30358995D-01
 -0.70567134D-02  0.83688247D-01  0.81149448D-01  0.54742938D-01 -0.12763494D+00
 -0.12376296D+00 -0.83489760D-01 -0.13911147D+01 -0.13489133D+01 -0.90996896D+00
  0.17888369D-01 -0.26426023D-01 -0.30233617D+00  0.17443956D-02 -0.24977371D-02
 -0.35717135D-01  0.18082823D-04 -0.24887327D-04 -0.70237510D-03 -0.43110150D-01
  0.62591865D-02  0.36850964D-01 -0.10188180D-02 -0.12312367D-01  0.11920904D-01
 -0.61191896D-02 -0.48429475D-02  0.10962137D-01 -0.13353888D-03 -0.25649631D-02
  0.15622465D-02  0.72894793D-03 -0.12867815D-02  0.55783355D-03  0.73920217D-05
  0.54525486D-04 -0.86547735D-04 -0.13267933D-02 -0.59637441D-03 -0.69587168D-03
  0.89765470D-03  0.12991371D-02  0.17749593D-01  0.30827252D-02  0.48998612D-03
 -0.15661978D-01  0.13940223D-03 -0.36706946D-05 -0.10468842D-04 -0.68719183D-03
 -0.17709299D-03  0.74757943D-04  0.12153829D-03  0.18810507D-03 -0.43351416D-04
  0.19400372D-02  0.20342892D-04  0.32817397D-01  0.59187528D-01  0.87271975D-01
  0.59873295D-01  0.82681435D-02  0.74350487D-04 -0.10508962D-02  0.30039952D-01
  0.65914306D-02 -0.37553360D-03  0.12239091D-01  0.12909241D-02  0.38921335D-04
  0.11719477D-03 -0.93482577D-03 -0.43487584D-02  0.69580447D-02 -0.26092863D-02
 -0.10894415D-02 -0.48147320D-03  0.99105050D-02 -0.10335773D-03  0.20088386D-03
 -0.97526131D-04  0.68581123D-05 -0.17002939D-04 -0.37735394D-03  0.26262776D-01
  0.47365998D-01  0.69841137D-01  0.47762635D-01  0.68085577D-02  0.94967021D-04
 -0.63823500D-03 -0.26398376D-01  0.17633803D-02 -0.21003929D-03 -0.10909184D-01
 -0.64516359D-03  0.41787223D-04 -0.16513409D-03 -0.96842445D-03 -0.31194391D-02
  0.63319781D-02 -0.32125390D-02  0.77451897D-03 -0.16589155D-03 -0.62264112D-02
 -0.92966400D-04  0.22651384D-03 -0.13354744D-03 -0.15675302D-04 -0.90052111D-05
  0.48064942D-03
MO    3     MO 0.0        OCC NO =    2.0000000  ORB. ENERGY =    0.000000
  0.37096294D-01  0.69141393D-01  0.11723895D+00  0.17742868D+00  0.22132829D+00
  0.18993260D+00  0.72734097D-01  0.34296540D-03  0.36797937D-02  0.13564413D-01
  0.39661546D-01  0.47794092D-01 -0.57573049D-01 -0.31060949D-01 -0.23436651D-01
 -0.23001369D-02  0.14077316D+01  0.13650261D+01  0.92083855D+00  0.86350609D+00
  0.83731044D+00  0.56484468D+00 -0.94311118D-01 -0.91450060D-01 -0.61691670D-01
  0.31769689D+00  0.17878358D+00 -0.18616099D-01  0.52171241D-01  0.16898282D-01
 -0.19732343D-02  0.16656865D-02  0.16837364D-03  0.18498705D-04  0.32143517D-02
 -0.39907620D-02  0.77641026D-03  0.68927487D-02 -0.57508447D-01 -0.80650123D-01
  0.15902269D-02 -0.18376484D-02  0.24742151D-03  0.90344885D-03 -0.14730647D-01
 -0.10569279D-01  0.19252388D-03 -0.18498789D-03 -0.75359926D-05 -0.50010254D-04
 -0.95877832D-03  0.58553321D-03 -0.83282507D-02  0.40347333D-02  0.39093230D-04
  0.17375980D-01 -0.87892298D-02 -0.20053800D-02  0.76087720D-02 -0.33149700D-02
  0.18881003D-02 -0.94311696D-03 -0.29217140D-03  0.70826289D-04  0.12181065D-05
  0.43122389D-03 -0.50577012D-03 -0.16685129D-03  0.44529032D-03  0.29329126D-03
  0.16319697D-03 -0.13762855D-03 -0.22065573D-01 -0.39796170D-01 -0.58679429D-01
 -0.35770442D-01 -0.30488742D-02  0.10366260D-03  0.20912548D-01 -0.12602424D-01
 -0.17989163D-01  0.11079879D-01 -0.29854961D-02 -0.62421447D-02  0.16370838D-02
  0.28266926D-03 -0.10654056D-03  0.34856939D-02 -0.13841022D-02 -0.21015917D-02
  0.10670407D-01  0.81960363D-02 -0.12087890D-01 -0.53701489D-04  0.14971657D-03
 -0.96015077D-04  0.10341560D-02  0.64232234D-03 -0.29605156D-03  0.22279302D-01
  0.40181638D-01  0.59247802D-01  0.46163460D-01  0.68258615D-02 -0.35817251D-04
  0.18120715D-01 -0.12034426D-01  0.14674706D-01  0.99602375D-02 -0.60119049D-02
  0.68563335D-02  0.16176948D-02  0.41661132D-04  0.12076916D-03 -0.48311880D-02
  0.28515121D-02  0.19796759D-02 -0.85398182D-02  0.60609887D-02 -0.12836613D-01
 -0.12400340D-03 -0.23681433D-04  0.14768483D-03 -0.97450386D-03  0.58821422D-03
 -0.40278743D-03
MO    4     MO 0.0        OCC NO =    2.0000000  ORB. ENERGY =    0.000000
 -0.27049643D-01 -0.50416087D-01 -0.85487561D-01 -0.12937633D+00 -0.16138678D+00
 -0.13849387D+00 -0.53035793D-01  0.35414320D-03  0.37997241D-02  0.14006498D-01
  0.40954180D-01  0.49351778D-01 -0.59449446D-01 -0.39804594D-01 -0.26449418D-01
 -0.27329649D-02 -0.10847619D+01 -0.10518542D+01 -0.70957461D+00  0.10849303D+01
  0.10520175D+01  0.70968478D+00 -0.36872199D+00 -0.35753630D+00 -0.24119188D+00
 -0.24525475D+00  0.22462810D+00 -0.80128663D-01 -0.40486672D-01  0.21231418D-01
 -0.11546291D-01 -0.13068472D-02  0.21154879D-03 -0.26731480D-03 -0.66493139D-02
 -0.44500420D-02  0.11099356D-01  0.86602194D-02  0.43143997D-01 -0.10133080D+00
 -0.84637291D-03 -0.21123472D-02  0.29587201D-02  0.11351154D-02  0.11277249D-01
 -0.13279503D-01  0.70318513D-04 -0.23527921D-03  0.16496070D-03 -0.62834116D-04
  0.77583681D-03  0.73567836D-03  0.63802047D-02  0.50693383D-02 -0.12472422D-02
 -0.13913012D-01 -0.11043005D-01  0.45994209D-02 -0.52276025D-02 -0.41650100D-02
 -0.85769423D-03 -0.11849554D-02  0.23134002D-03  0.88987896D-04 -0.72711271D-04
 -0.36076812D-03 -0.63546205D-03  0.15132787D-03 -0.33325195D-03  0.36849837D-03
  0.66805944D-04 -0.17291990D-03 -0.26792789D-01 -0.48321899D-01 -0.71250611D-01
 -0.44022643D-01 -0.38853001D-02  0.12722254D-03 -0.13296141D-01 -0.14792318D-01
 -0.25224515D-01 -0.75985196D-02 -0.35508874D-02 -0.95049520D-02 -0.12626450D-02
  0.34608926D-03 -0.41844252D-03  0.53706945D-02 -0.15216511D-02 -0.38490433D-02
 -0.63074118D-02 -0.41815027D-02 -0.16125881D-01  0.42677456D-04  0.18566895D-03
 -0.22834641D-03 -0.75779939D-03 -0.45976002D-03 -0.54850065D-03  0.28923205D-01
  0.52164190D-01  0.76916068D-01  0.58921131D-01  0.85215612D-02 -0.48023384D-04
 -0.16803869D-01 -0.16162029D-01  0.15815174D-01 -0.90052645D-02 -0.77536690D-02
  0.69522989D-02 -0.12870058D-02  0.61407446D-04 -0.13284499D-03 -0.50788410D-02
  0.38000791D-02  0.12787619D-02  0.89843356D-02 -0.68640292D-02 -0.15189879D-01
 -0.45651597D-04 -0.32192569D-04  0.77844167D-04  0.83274781D-03 -0.52774279D-03
 -0.32953788D-03
MO    5     MO 0.0        OCC NO =    2.0000000  ORB. ENERGY =    0.000000
  0.73297427D-01  0.13661435D+00  0.23164883D+00  0.35057588D+00  0.43731577D+00
  0.37528199D+00  0.14371307D+00 -0.14607279D-02 -0.15672652D-01 -0.57772346D-01
 -0.16892295D+00 -0.20356037D+00  0.24521003D+00  0.15953544D+00  0.93396811D-01
  0.85317447D-02 -0.73287746D-01 -0.71064461D-01 -0.47939666D-01  0.47311416D+00
  0.45876159D+00  0.30947786D+00  0.66366105D+00  0.64352798D+00  0.43412017D+00
 -0.15788178D-01  0.97955354D-01  0.14095545D+00 -0.23983045D-02  0.92585525D-02
  0.20859578D-01 -0.53693072D-04  0.92251754D-04  0.39738445D-03 -0.11322550D-02
  0.18614227D-01 -0.17481972D-01  0.37765304D-02  0.34989026D-02 -0.44188125D-01
 -0.23498882D-02  0.68149470D-02 -0.44650588D-02  0.49499876D-03  0.54138108D-03
 -0.57908980D-02 -0.32644448D-03  0.54957418D-03 -0.22312970D-03 -0.27400570D-04
 -0.60340274D-05  0.32081309D-03  0.31508617D-03  0.22106265D-02  0.25815759D-02
  0.24591663D-03 -0.48156106D-02 -0.24342586D-02 -0.11911751D-02 -0.18162689D-02
 -0.53104690D-02 -0.51673288D-03  0.67120605D-05  0.38805656D-04 -0.11726641D-04
 -0.11293614D-04 -0.27711097D-03 -0.35636230D-04 -0.88425674D-05  0.16069400D-03
  0.70816153D-04 -0.75406549D-04 -0.78715880D-02 -0.14196733D-01 -0.20933075D-01
 -0.35827592D-01 -0.94821484D-02 -0.90472225D-04 -0.68904674D-03 -0.12904649D-02
  0.53794099D-02 -0.16789130D-04 -0.71971403D-02 -0.12630254D-02 -0.46011971D-04
 -0.41281956D-03  0.31301458D-03  0.23715376D-02 -0.35351344D-02  0.11635968D-02
  0.29889294D-03  0.12240578D-03 -0.48300840D-02  0.15877466D-03 -0.18628181D-03
  0.27507147D-04  0.59731492D-06  0.15115216D-04 -0.14667814D-03  0.16424926D-01
  0.29623031D-01  0.43679142D-01  0.90639150D-02 -0.40717901D-02 -0.16689310D-03
 -0.22186896D-02 -0.12208042D-01  0.23275912D-01 -0.63023952D-03  0.22674728D-02
  0.59136183D-02 -0.56635176D-04  0.59051987D-03  0.43755736D-03 -0.21852741D-02
 -0.12144454D-02  0.33997194D-02  0.86845442D-03 -0.10473848D-02 -0.88260273D-02
  0.12025631D-03 -0.28128640D-03  0.16103009D-03  0.32086033D-04 -0.14530571D-04
 -0.23621507D-03
END DATA
 TOTAL ENERGY =    -76.466194010053 THE VIRIAL(-V/T)=   2.00602215
