 10
GAUSSIAN              5 MOL ORBITALS    126 PRIMITIVES        3 NUCLEI   B3LYP   B3LYP   B3LYP   B3LYP
  O    1    (CENTRE  1)   0.09448631  0.09448631  0.00815606  CHARGE =  8.0
  H    2    (CENTRE  2)   0.00000000 -1.44255835 -1.09730160  CHARGE =  1.0
  H    3    (CENTRE  3)   0.00000000  1.44255835 -1.09730160  CHARGE =  1.0
CENTRE ASSIGNMENTS    1  1  1  1  1  1  1  1  1  1  1  1  1  1  1  1  1  1  1  1
CENTRE ASSIGNMENTS    1  1  1  1  1  1  1  1  1  1  1  1  1  1  1  1  1  1  1  1
CENTRE ASSIGNMENTS    1  1  1  1  1  1  1  1  1  1  1  1  1  1  1  1  1  1  1  1
CENTRE ASSIGNMENTS    1  1  1  1  1  1  1  1  1  1  1  1  2  2  2  2  2  2  2  2
CENTRE ASSIGNMENTS    2  2  2  2  2  2  2  2  2  2  2  2  2  2  2  2  2  2  2  3
CENTRE ASSIGNMENTS    3  3  3  3  3  3  3  3  3  3  3  3  3  3  3  3  3  3  3  3
CENTRE ASSIGNMENTS    3  3  3  3  3  3
TYPE ASSIGNMENTS      1  1  1  1  1  1  1  1  1  1  1  1  1  1  1  1  2  2  2  3
TYPE ASSIGNMENTS      3  3  4  4  4  2  3  4  2  3  4  2  3  4  5  6  7  8  9 10
TYPE ASSIGNMENTS      5  6  7  8  9 10  5  6  7  8  9 10 11 12 13 17 14 15 18 19
TYPE ASSIGNMENTS     16 20 11 12 13 17 14 15 18 19 16 20  1  1  1  1  1  1  2  3
TYPE ASSIGNMENTS      4  2  3  4  2  3  4  5  6  7  8  9 10  5  6  7  8  9 10  1
TYPE ASSIGNMENTS      1  1  1  1  1  2  3  4  2  3  4  2  3  4  5  6  7  8  9 10
TYPE ASSIGNMENTS      5  6  7  8  9 10
EXPONENTS  0.1533000D+05 0.2299000D+04 0.5224000D+03 0.1473000D+03 0.4755000D+02
EXPONENTS  0.1676000D+02 0.6207000D+01 0.5224000D+03 0.1473000D+03 0.4755000D+02
EXPONENTS  0.1676000D+02 0.6207000D+01 0.6882000D+00 0.1752000D+01 0.2384000D+00
EXPONENTS  0.7376000D-01 0.3446000D+02 0.7749000D+01 0.2280000D+01 0.3446000D+02
EXPONENTS  0.7749000D+01 0.2280000D+01 0.3446000D+02 0.7749000D+01 0.2280000D+01
EXPONENTS  0.7156000D+00 0.7156000D+00 0.7156000D+00 0.2140000D+00 0.2140000D+00
EXPONENTS  0.2140000D+00 0.5974000D-01 0.5974000D-01 0.5974000D-01 0.2314000D+01
EXPONENTS  0.2314000D+01 0.2314000D+01 0.2314000D+01 0.2314000D+01 0.2314000D+01
EXPONENTS  0.6450000D+00 0.6450000D+00 0.6450000D+00 0.6450000D+00 0.6450000D+00
EXPONENTS  0.6450000D+00 0.2140000D+00 0.2140000D+00 0.2140000D+00 0.2140000D+00
EXPONENTS  0.2140000D+00 0.2140000D+00 0.1428000D+01 0.1428000D+01 0.1428000D+01
EXPONENTS  0.1428000D+01 0.1428000D+01 0.1428000D+01 0.1428000D+01 0.1428000D+01
EXPONENTS  0.1428000D+01 0.1428000D+01 0.5000000D+00 0.5000000D+00 0.5000000D+00
EXPONENTS  0.5000000D+00 0.5000000D+00 0.5000000D+00 0.5000000D+00 0.5000000D+00
EXPONENTS  0.5000000D+00 0.5000000D+00 0.3387000D+02 0.5095000D+01 0.1159000D+01
EXPONENTS  0.3258000D+00 0.1027000D+00 0.2526000D-01 0.1407000D+01 0.1407000D+01
EXPONENTS  0.1407000D+01 0.3880000D+00 0.3880000D+00 0.3880000D+00 0.1020000D+00
EXPONENTS  0.1020000D+00 0.1020000D+00 0.1057000D+01 0.1057000D+01 0.1057000D+01
EXPONENTS  0.1057000D+01 0.1057000D+01 0.1057000D+01 0.2470000D+00 0.2470000D+00
EXPONENTS  0.2470000D+00 0.2470000D+00 0.2470000D+00 0.2470000D+00 0.3387000D+02
EXPONENTS  0.5095000D+01 0.1159000D+01 0.3258000D+00 0.1027000D+00 0.2526000D-01
EXPONENTS  0.1407000D+01 0.1407000D+01 0.1407000D+01 0.3880000D+00 0.3880000D+00
EXPONENTS  0.3880000D+00 0.1020000D+00 0.1020000D+00 0.1020000D+00 0.1057000D+01
EXPONENTS  0.1057000D+01 0.1057000D+01 0.1057000D+01 0.1057000D+01 0.1057000D+01
EXPONENTS  0.2470000D+00 0.2470000D+00 0.2470000D+00 0.2470000D+00 0.2470000D+00
EXPONENTS  0.2470000D+00
MO    1     MO 0.0        OCC NO =    2.0000000  ORB. ENERGY =    0.000000
 -0.36905724D-02 -0.68786202D-02 -0.11663667D-01 -0.17651720D-01 -0.22019129D-01
 -0.18895689D-01 -0.72360450D-02 -0.47140835D-03 -0.50579023D-02 -0.18644380D-01
 -0.54515074D-01 -0.65693315D-01  0.79134559D-01  0.47776081D-01 -0.24915686D-01
 -0.69348158D-02 -0.58624972D-01 -0.56846503D-01 -0.38348315D-01 -0.72943545D-01
 -0.70730702D-01 -0.47714513D-01 -0.14380455D+01 -0.13944204D+01 -0.94066773D+00
 -0.12211619D-01 -0.21672520D-01 -0.31264629D+00 -0.72148845D-03 -0.49632272D-02
 -0.36351592D-01  0.15710180D-04 -0.69745931D-04 -0.71075593D-03 -0.45635106D-01
  0.71154292D-02  0.38519677D-01  0.56917693D-04  0.11818688D-01 -0.11993799D-02
 -0.68435836D-02 -0.43556830D-02  0.11199267D-01  0.36674282D-03  0.24256989D-02
  0.47453783D-02  0.74401016D-03 -0.12850942D-02  0.54108408D-03  0.78996181D-04
 -0.80142539D-04  0.10563731D-02  0.12200160D-02 -0.11213284D-02 -0.70715535D-03
 -0.60489010D-03  0.24135850D-02  0.18533460D-01 -0.30551578D-02  0.95040016D-03
 -0.16411994D-01 -0.31664192D-03  0.50826096D-05  0.26683281D-03 -0.65877912D-03
  0.17227088D-03  0.41730021D-03  0.20830382D-03 -0.18751871D-03 -0.12177987D-02
  0.17680336D-02 -0.24061533D-03  0.32099051D-01  0.57891960D-01  0.85361662D-01
  0.55815823D-01  0.84158468D-02  0.86921429D-04  0.11848575D-02  0.27703068D-01
  0.43760159D-02  0.50685887D-03  0.11671936D-01  0.74711415D-03 -0.48622287D-05
  0.18569681D-03 -0.87790583D-03 -0.38583822D-02  0.65998361D-02 -0.27414539D-02
  0.10786213D-02  0.48547233D-03  0.77213875D-02 -0.23117596D-03  0.26462056D-03
 -0.33444599D-04  0.32752681D-04  0.57344770D-04 -0.10987500D-03  0.32525239D-01
  0.58660608D-01  0.86495032D-01  0.58646542D-01  0.69357358D-02  0.74634907D-04
  0.16357828D-02 -0.34805406D-01  0.77108181D-02  0.56915708D-03 -0.12782829D-01
  0.46334591D-03 -0.13717485D-04 -0.75507466D-04 -0.10925367D-02 -0.47639264D-02
  0.77944749D-02 -0.30305485D-02 -0.14854216D-02  0.67652144D-03 -0.11899833D-01
  0.49693599D-04  0.18563137D-03 -0.23532496D-03  0.17378500D-04 -0.13573723D-04
  0.78951659D-03
MO    2     MO 0.0        OCC NO =    2.0000000  ORB. ENERGY =    0.000000
 -0.22929944D-01 -0.42737645D-01 -0.72467683D-01 -0.10967213D+00 -0.13680734D+00
 -0.11740105D+00 -0.44958366D-01  0.17253429D-03  0.18511797D-02  0.68237969D-02
  0.19952382D-01  0.24043590D-01 -0.28963053D-01 -0.19008431D-01 -0.20915277D-01
 -0.18939400D-02 -0.23797179D+00 -0.23075259D+00 -0.15566433D+00  0.14423722D+01
  0.13986159D+01  0.94349801D+00 -0.17784465D+00 -0.17244949D+00 -0.11633341D+00
 -0.53042592D-01  0.29863451D+00 -0.32289267D-01 -0.83839188D-02  0.28144606D-01
 -0.13790099D-02 -0.26612896D-03  0.28083097D-03 -0.13935055D-04 -0.23323303D-02
 -0.32427778D-02  0.55751081D-02 -0.12063982D-01  0.10627268D-01 -0.13467492D+00
  0.13024535D-02 -0.25642524D-02  0.12617989D-02 -0.13767673D-02  0.23535402D-02
 -0.17687463D-01  0.44973026D-03 -0.38759484D-03 -0.62135420D-04  0.12893095D-03
  0.68218703D-04  0.10500446D-02  0.13541180D-02  0.67470592D-02 -0.39337325D-03
 -0.26708802D-02 -0.14945580D-01  0.79213599D-04 -0.13914737D-02 -0.52955973D-02
  0.11009061D-02  0.18869037D-02  0.13793997D-04  0.14795745D-03 -0.22252742D-03
  0.17768255D-04 -0.84545401D-03 -0.39526909D-03 -0.59150247D-04  0.40158167D-03
  0.10628514D-02  0.72702762D-04 -0.35439746D-01 -0.63917042D-01 -0.94245641D-01
 -0.61089117D-01 -0.73477553D-02  0.14582966D-03 -0.48970946D-02 -0.18268261D-01
 -0.24424656D-01 -0.23817010D-02 -0.60237761D-02 -0.99000623D-02 -0.26742593D-03
  0.24926103D-03 -0.28439662D-03  0.59324645D-02 -0.30949621D-02 -0.28375023D-02
 -0.30037166D-02 -0.25261415D-02 -0.18164901D-01  0.12941208D-03  0.54268294D-04
 -0.18368037D-03 -0.22124256D-03 -0.13454169D-03 -0.88012482D-03  0.38848310D-01
  0.70064527D-01  0.10331010D+00  0.76441424D-01  0.89523067D-02 -0.97103271D-04
 -0.76271973D-03 -0.23067316D-01  0.30671182D-01 -0.82730890D-03 -0.84373780D-02
  0.11797574D-01 -0.27236781D-03  0.38123360D-03  0.41849075D-04 -0.78126810D-02
  0.35797073D-02  0.42329737D-02 -0.34253881D-03  0.76404365D-03 -0.22998732D-01
  0.56881851D-04 -0.27529752D-03  0.21841567D-03  0.16256128D-03 -0.95186735D-04
 -0.12844033D-03
MO    3     MO 0.0        OCC NO =    2.0000000  ORB. ENERGY =    0.000000
  0.50702484D+00  0.94501093D+00  0.16023988D+01  0.24250602D+01  0.30250715D+01
  0.25959614D+01  0.99411531D+00  0.54455964D-03  0.58427676D-02  0.21537542D-01
  0.62974508D-01  0.75887344D-01 -0.91414348D-01  0.36526694D-02 -0.27280957D-01
 -0.21353916D-02 -0.12354939D-01 -0.11980135D-01 -0.80817280D-02  0.44984628D-01
  0.43619957D-01  0.29425765D-01 -0.13406741D+00 -0.13000029D+00 -0.87697425D-01
 -0.25273711D-02  0.11858319D-01 -0.27203917D-01 -0.43059218D-03  0.17453299D-02
 -0.46486992D-02 -0.89414148D-05  0.30814643D-04 -0.92145049D-04  0.25562550D-03
 -0.38266269D-02  0.35710014D-02 -0.49877009D-03  0.60747348D-03 -0.57999726D-02
  0.13190569D-02 -0.22117005D-02  0.89264358D-03 -0.17217613D-03 -0.63915328D-04
 -0.20216505D-02  0.10408818D-03 -0.15412452D-03  0.50036336D-04 -0.11210655D-04
 -0.86740123D-05 -0.13295223D-03  0.96513154D-04  0.24384195D-03 -0.27738017D-03
 -0.29584558D-04 -0.15748016D-02  0.10462524D-02 -0.25995490D-03  0.84327573D-03
 -0.21411189D-03  0.41713770D-03 -0.26967371D-04  0.24460241D-04 -0.11573753D-03
  0.56299574D-04 -0.10232948D-03 -0.31483214D-03  0.24602539D-04  0.28948762D-04
  0.66204472D-03  0.22036914D-04 -0.41975576D-02 -0.75704679D-02 -0.11162651D-01
 -0.91273398D-03  0.15471533D-02  0.52912550D-04 -0.43328321D-03 -0.39018437D-02
 -0.49372230D-02 -0.95524530D-04  0.51403221D-03 -0.10455890D-02 -0.72282296D-05
  0.18543145D-03 -0.73176113D-04  0.93872100D-03 -0.35502372D-03 -0.58369728D-03
 -0.28041916D-03 -0.26622933D-03 -0.32128628D-02 -0.38072689D-04  0.79399027D-04
 -0.41326338D-04 -0.28861275D-05 -0.88207538D-06 -0.27019308D-04 -0.24158660D-02
 -0.43571137D-02 -0.64245617D-02  0.90978389D-03  0.12505465D-02  0.15508653D-04
 -0.48573775D-03  0.46743560D-02 -0.55235777D-02 -0.13217024D-03  0.46249624D-03
 -0.14600534D-02 -0.14204106D-04  0.98157656D-06 -0.15323339D-03  0.16211757D-02
 -0.91622355D-03 -0.70495212D-03  0.44950941D-03 -0.40586878D-03  0.51825909D-02
 -0.40586486D-05  0.10844500D-04 -0.67858519D-05  0.71999889D-05 -0.96162139D-06
  0.76057487D-04
MO    4     MO 0.0        OCC NO =    2.0000000  ORB. ENERGY =    0.000000
  0.40616223D-02  0.75701961D-02  0.12836331D-01  0.19426422D-01  0.24232931D-01
  0.20795460D-01  0.79635564D-02 -0.21244095D-03 -0.22793520D-02 -0.84021205D-02
 -0.24567308D-01 -0.29604800D-01  0.35662119D-01  0.22664431D-01  0.13951440D-01
  0.14330404D-02  0.17590989D+01  0.17057342D+01  0.11506782D+01  0.21291047D+00
  0.20645154D+00  0.13927099D+00 -0.14168287D-01 -0.13738473D-01 -0.92678926D-02
  0.39698684D+00  0.44197143D-01 -0.39736146D-02  0.65232608D-01  0.42992456D-02
 -0.99378714D-03  0.20857933D-02  0.45658914D-04 -0.90292618D-04 -0.51847785D-02
  0.24709053D-02  0.27138732D-02  0.26432198D-02 -0.71852744D-01 -0.20208286D-01
 -0.15639596D-02  0.94736933D-03  0.61659023D-03 -0.12824706D-02 -0.18277821D-01
 -0.25224440D-02 -0.12071264D-03  0.81165014D-04  0.39547631D-04 -0.29927916D-03
 -0.12081704D-02  0.12668393D-03 -0.10356816D-01  0.98121276D-03 -0.41486574D-03
  0.21674070D-01 -0.23748495D-02  0.32896539D-02  0.93963785D-02 -0.56878877D-03
 -0.20450567D-02 -0.14656411D-02 -0.36755931D-03  0.65869123D-05 -0.55991918D-04
  0.58201397D-03 -0.63325970D-05  0.11612707D-03  0.52066397D-03 -0.13428140D-04
  0.51848680D-04  0.11215599D-02 -0.56020199D-02 -0.10103474D-01 -0.14897566D-01
 -0.12916634D-01 -0.25213512D-02 -0.43524385D-05  0.21916591D-01 -0.26359594D-02
 -0.33231881D-02  0.11955094D-01 -0.20412773D-02 -0.20761139D-02  0.19116507D-02
 -0.60848330D-04 -0.11329425D-03  0.16907612D-02 -0.10665751D-02 -0.62418619D-03
  0.11164192D-01  0.76289282D-02 -0.35219037D-02  0.10804305D-03 -0.46112026D-04
 -0.61931027D-04  0.11357833D-02  0.60756292D-03 -0.21665130D-03  0.53894797D-02
  0.97201485D-02  0.14332353D-01  0.66693480D-02 -0.10058125D-03 -0.38365166D-04
  0.27133799D-01 -0.31217086D-02  0.45827558D-02  0.14576119D-01  0.43535254D-04
  0.83036804D-03  0.21736071D-02  0.13794668D-03 -0.77492319D-04 -0.10401527D-03
 -0.15201348D-03  0.25602875D-03 -0.13018105D-01  0.10415231D-01 -0.22318362D-02
  0.10949924D-03 -0.81739399D-04 -0.27759842D-04 -0.13652936D-02  0.94852780D-03
  0.63330235D-04
MO    5     MO 0.0        OCC NO =    2.0000000  ORB. ENERGY =    0.000000
  0.40783724D-01  0.76014155D-01  0.12889268D+00  0.19506537D+00  0.24332867D+00
  0.20881220D+00  0.79963980D-01 -0.15627345D-02 -0.16767116D-01 -0.61806747D-01
 -0.18071930D+00 -0.21777555D+00  0.26233372D+00  0.16643007D+00  0.97457752D-01
  0.88147097D-02 -0.22433062D+00 -0.21752524D+00 -0.14674124D+00  0.17185185D+00
  0.16663848D+00  0.11241334D+00  0.69344029D+00  0.67240382D+00  0.45359964D+00
 -0.51342457D-01  0.34799044D-01  0.14823933D+00 -0.85924709D-02  0.34426596D-02
  0.22588574D-01 -0.29960723D-03  0.46595290D-04  0.44078642D-03 -0.10531878D-02
  0.19509094D-01 -0.18455906D-01 -0.21986558D-02  0.88000103D-02 -0.17499886D-01
 -0.21819214D-02  0.69129956D-02 -0.47310742D-02  0.63696077D-04  0.25661614D-02
 -0.12641287D-02 -0.26418723D-03  0.51771646D-03 -0.25352923D-03  0.52719549D-04
  0.20091959D-03  0.32342689D-04  0.14434983D-02  0.53386637D-03  0.27847739D-02
 -0.39700995D-02 -0.14780781D-02 -0.30843615D-02 -0.36039547D-03 -0.12352104D-03
 -0.52699600D-02  0.51963552D-03  0.51331483D-04 -0.14838282D-04 -0.31066119D-04
 -0.75690742D-04  0.11185478D-03 -0.11012811D-03 -0.78303706D-04 -0.67339938D-04
  0.20332647D-03 -0.21174336D-03  0.35611675D-03  0.64227122D-03  0.94702854D-03
 -0.19525840D-01 -0.79739359D-02 -0.12216035D-03 -0.25709323D-02  0.42805793D-02
  0.11767399D-01 -0.18070447D-02 -0.52894492D-02  0.17276809D-02 -0.27741966D-03
 -0.53232398D-03  0.37592931D-03  0.60817914D-03 -0.26895989D-02  0.20814198D-02
 -0.18070730D-02 -0.10396418D-02  0.46976271D-03  0.17250485D-03 -0.26957448D-03
  0.97069629D-04 -0.18983441D-03 -0.11561237D-03 -0.45072789D-04  0.10317387D-01
  0.18607832D-01  0.27437238D-01 -0.53398083D-02 -0.60880949D-02 -0.14500023D-03
 -0.25291950D-02 -0.91645785D-02  0.20815838D-01 -0.19978428D-02  0.39927962D-02
  0.39670297D-02 -0.31398679D-03  0.54146241D-03  0.43631319D-03 -0.12015890D-02
 -0.19829052D-02  0.31844941D-02  0.15920505D-02 -0.91263544D-03 -0.55516265D-02
  0.12036569D-03 -0.24987197D-03  0.12950628D-03  0.21407038D-03 -0.15506000D-03
 -0.79411223D-04
END DATA
 TOTAL ENERGY =    -76.463197796003 THE VIRIAL(-V/T)=   2.00584739
