 10
GAUSSIAN              5 MOL ORBITALS    126 PRIMITIVES        3 NUCLEI   B3LYP   B3LYP   B3LYP   B3LYP
  O    1    (CENTRE  1)  -0.09448631  0.09448631  0.00815606  CHARGE =  8.0
  H    2    (CENTRE  2)   0.00000000 -1.44255835 -1.09730160  CHARGE =  1.0
  H    3    (CENTRE  3)   0.00000000  1.44255835 -1.09730160  CHARGE =  1.0
CENTRE ASSIGNMENTS    1  1  1  1  1  1  1  1  1  1  1  1  1  1  1  1  1  1  1  1
CENTRE ASSIGNMENTS    1  1  1  1  1  1  1  1  1  1  1  1  1  1  1  1  1  1  1  1
CENTRE ASSIGNMENTS    1  1  1  1  1  1  1  1  1  1  1  1  1  1  1  1  1  1  1  1
CENTRE ASSIGNMENTS    1  1  1  1  1  1  1  1  1  1  1  1  2  2  2  2  2  2  2  2
CENTRE ASSIGNMENTS    2  2  2  2  2  2  2  2  2  2  2  2  2  2  2  2  2  2  2  3
CENTRE ASSIGNMENTS    3  3  3  3  3  3  3  3  3  3  3  3  3  3  3  3  3  3  3  3
CENTRE ASSIGNMENTS    3  3  3  3  3  3
TYPE ASSIGNMENTS      1  1  1  1  1  1  1  1  1  1  1  1  1  1  1  1  2  2  2  3
TYPE ASSIGNMENTS      3  3  4  4  4  2  3  4  2  3  4  2  3  4  5  6  7  8  9 10
TYPE ASSIGNMENTS      5  6  7  8  9 10  5  6  7  8  9 10 11 12 13 17 14 15 18 19
TYPE ASSIGNMENTS     16 20 11 12 13 17 14 15 18 19 16 20  1  1  1  1  1  1  2  3
TYPE ASSIGNMENTS      4  2  3  4  2  3  4  5  6  7  8  9 10  5  6  7  8  9 10  1
TYPE ASSIGNMENTS      1  1  1  1  1  2  3  4  2  3  4  2  3  4  5  6  7  8  9 10
TYPE ASSIGNMENTS      5  6  7  8  9 10
EXPONENTS  0.1533000D+05 0.2299000D+04 0.5224000D+03 0.1473000D+03 0.4755000D+02
EXPONENTS  0.1676000D+02 0.6207000D+01 0.5224000D+03 0.1473000D+03 0.4755000D+02
EXPONENTS  0.1676000D+02 0.6207000D+01 0.6882000D+00 0.1752000D+01 0.2384000D+00
EXPONENTS  0.7376000D-01 0.3446000D+02 0.7749000D+01 0.2280000D+01 0.3446000D+02
EXPONENTS  0.7749000D+01 0.2280000D+01 0.3446000D+02 0.7749000D+01 0.2280000D+01
EXPONENTS  0.7156000D+00 0.7156000D+00 0.7156000D+00 0.2140000D+00 0.2140000D+00
EXPONENTS  0.2140000D+00 0.5974000D-01 0.5974000D-01 0.5974000D-01 0.2314000D+01
EXPONENTS  0.2314000D+01 0.2314000D+01 0.2314000D+01 0.2314000D+01 0.2314000D+01
EXPONENTS  0.6450000D+00 0.6450000D+00 0.6450000D+00 0.6450000D+00 0.6450000D+00
EXPONENTS  0.6450000D+00 0.2140000D+00 0.2140000D+00 0.2140000D+00 0.2140000D+00
EXPONENTS  0.2140000D+00 0.2140000D+00 0.1428000D+01 0.1428000D+01 0.1428000D+01
EXPONENTS  0.1428000D+01 0.1428000D+01 0.1428000D+01 0.1428000D+01 0.1428000D+01
EXPONENTS  0.1428000D+01 0.1428000D+01 0.5000000D+00 0.5000000D+00 0.5000000D+00
EXPONENTS  0.5000000D+00 0.5000000D+00 0.5000000D+00 0.5000000D+00 0.5000000D+00
EXPONENTS  0.5000000D+00 0.5000000D+00 0.3387000D+02 0.5095000D+01 0.1159000D+01
EXPONENTS  0.3258000D+00 0.1027000D+00 0.2526000D-01 0.1407000D+01 0.1407000D+01
EXPONENTS  0.1407000D+01 0.3880000D+00 0.3880000D+00 0.3880000D+00 0.1020000D+00
EXPONENTS  0.1020000D+00 0.1020000D+00 0.1057000D+01 0.1057000D+01 0.1057000D+01
EXPONENTS  0.1057000D+01 0.1057000D+01 0.1057000D+01 0.2470000D+00 0.2470000D+00
EXPONENTS  0.2470000D+00 0.2470000D+00 0.2470000D+00 0.2470000D+00 0.3387000D+02
EXPONENTS  0.5095000D+01 0.1159000D+01 0.3258000D+00 0.1027000D+00 0.2526000D-01
EXPONENTS  0.1407000D+01 0.1407000D+01 0.1407000D+01 0.3880000D+00 0.3880000D+00
EXPONENTS  0.3880000D+00 0.1020000D+00 0.1020000D+00 0.1020000D+00 0.1057000D+01
EXPONENTS  0.1057000D+01 0.1057000D+01 0.1057000D+01 0.1057000D+01 0.1057000D+01
EXPONENTS  0.2470000D+00 0.2470000D+00 0.2470000D+00 0.2470000D+00 0.2470000D+00
EXPONENTS  0.2470000D+00
MO    1     MO 0.0        OCC NO =    2.0000000  ORB. ENERGY =    0.000000
 -0.45596299D-01 -0.84984004D-01 -0.14410232D+00 -0.21808354D+00 -0.27204203D+00
 -0.23345253D+00 -0.89399918D-01 -0.10768827D-03 -0.11554245D-02 -0.42591122D-02
 -0.12453394D-01 -0.15006946D-01  0.18077456D-01  0.56913200D-02  0.57899976D-01
  0.93799057D-02 -0.15748648D+00 -0.15270891D+00 -0.10301653D+00 -0.39381625D+00
 -0.38186929D+00 -0.25760677D+00  0.15347521D+01  0.14881932D+01  0.10039264D+01
 -0.34188114D-01 -0.76198089D-01  0.33052007D+00 -0.43178302D-02 -0.46110122D-02
  0.39097605D-01 -0.95968500D-04 -0.26583202D-04  0.75678599D-03  0.41035903D-01
  0.22544790D-03 -0.41261351D-01 -0.38060598D-02  0.15266320D-01  0.43759231D-01
  0.48711814D-02  0.68305466D-02 -0.11701728D-01 -0.13767578D-03  0.31325830D-02
  0.17989730D-02 -0.90591324D-03  0.14348730D-02 -0.52895972D-03  0.11398842D-03
 -0.46509898D-04 -0.12793352D-02  0.16645226D-02 -0.12176763D-02  0.14771133D-02
 -0.14293853D-02  0.28153398D-02 -0.17332652D-01 -0.35641826D-02  0.83768908D-03
  0.12901312D-01  0.36734513D-03  0.89179563D-05 -0.29659776D-03  0.67117767D-03
  0.16112434D-03 -0.35721168D-04 -0.28186430D-04 -0.18787821D-03  0.92551444D-03
 -0.19853466D-02 -0.18233669D-03 -0.15851029D-01 -0.28587984D-01 -0.42152966D-01
 -0.33719788D-01 -0.72291742D-02 -0.16605629D-03 -0.10209318D-02 -0.16875034D-01
  0.80635938D-02 -0.46124733D-03 -0.97770150D-02  0.32738362D-02 -0.11255032D-03
 -0.41194434D-03  0.98107319D-03  0.14675585D-02 -0.54733209D-02  0.40057623D-02
 -0.15890724D-03 -0.55709041D-03 -0.14662625D-03  0.21348615D-03 -0.33444693D-03
  0.12096078D-03 -0.50494324D-04  0.64431280D-05  0.38912709D-03 -0.39521505D-01
 -0.71278662D-01 -0.10510035D+00 -0.80254519D-01 -0.11000854D-01 -0.72249332D-04
  0.58617670D-03  0.36119036D-01 -0.11533149D-01  0.67705857D-04  0.15292188D-01
 -0.33303503D-02 -0.12534189D-03  0.73854109D-04  0.10856158D-02  0.64695874D-02
 -0.85865133D-02  0.21169260D-02 -0.12195877D-02  0.59471134D-03  0.16512903D-01
 -0.29214153D-04 -0.13619417D-03  0.16540833D-03  0.79172611D-04 -0.48028728D-04
 -0.68685516D-03
MO    2     MO 0.0        OCC NO =    2.0000000  ORB. ENERGY =    0.000000
 -0.87192625D-02 -0.16251272D-01 -0.27556315D-01 -0.41703552D-01 -0.52021894D-01
 -0.44642525D-01 -0.17095715D-01  0.78841945D-04  0.84592233D-03  0.31182290D-02
  0.91175187D-02  0.10987053D-01 -0.13235070D-01 -0.75499254D-02  0.32965117D-02
  0.18277272D-02  0.29897297D-01  0.28990322D-01  0.19556700D-01  0.14127785D+01
  0.13699199D+01  0.92413990D+00  0.39022908D+00  0.37839094D+00  0.25526029D+00
  0.65556728D-02  0.29455698D+00  0.90336968D-01  0.12042952D-02  0.28745879D-01
  0.13369120D-01  0.52558621D-04  0.29548763D-03  0.26518157D-03  0.11795160D-01
 -0.23824225D-02 -0.94127379D-02  0.11232693D-01  0.10211243D-02 -0.12958527D+00
  0.29491248D-02  0.55618417D-04 -0.30047432D-02  0.15390881D-02  0.35507590D-03
 -0.18454816D-01  0.12913394D-03  0.13267572D-03 -0.26180966D-03 -0.66908631D-04
  0.22921642D-04  0.65326133D-03  0.13240670D-03  0.68215618D-02  0.19375365D-03
  0.32776188D-03 -0.15162695D-01 -0.59303400D-02 -0.72498197D-03 -0.53019907D-02
  0.53490790D-02 -0.17621190D-02  0.24536798D-04  0.50521960D-04 -0.65147698D-05
 -0.18478321D-04 -0.90670481D-03 -0.43950725D-03 -0.55132071D-04  0.75513893D-03
  0.45905156D-03 -0.24589445D-03 -0.43924473D-01 -0.79219596D-01 -0.11680925D+00
 -0.78946737D-01 -0.10911043D-01  0.90811851D-04  0.27576561D-02 -0.25663387D-01
 -0.22931426D-01  0.12442569D-02 -0.10316397D-01 -0.94559541D-02  0.64199132D-04
  0.93661345D-04  0.56297066D-04  0.70458833D-02 -0.54994476D-02 -0.15464357D-02
  0.20999758D-02  0.17680783D-02 -0.19747435D-01  0.23054282D-03 -0.76335454D-04
 -0.15420737D-03  0.11100134D-03  0.89184076D-04 -0.81413338D-03  0.27641344D-01
  0.49852302D-01  0.73507190D-01  0.52198208D-01  0.52513939D-02 -0.13848142D-03
 -0.15479084D-02 -0.11795021D-01  0.29352330D-01 -0.45674872D-03 -0.31650876D-02
  0.11441160D-01  0.40755181D-04  0.46896728D-03  0.44026601D-03 -0.58863732D-02
  0.51616095D-03  0.53702122D-02  0.11211171D-02 -0.15664130D-02 -0.18507393D-01
  0.65997994D-04 -0.35932895D-03  0.29333096D-03 -0.17153145D-04 -0.42377475D-05
 -0.37655219D-03
MO    3     MO 0.0        OCC NO =    2.0000000  ORB. ENERGY =    0.000000
  0.78767661D-02  0.14680997D-01  0.24893693D-01  0.37673958D-01  0.46995293D-01
  0.40328953D-01  0.15443847D-01  0.20826647D-03  0.22345626D-02  0.82370184D-02
  0.24084559D-01  0.29023064D-01 -0.34961356D-01 -0.20638368D-01 -0.10366977D-01
 -0.74796229D-03  0.17717621D+01  0.17180132D+01  0.11589616D+01 -0.66436775D-01
 -0.64421324D-01 -0.43458245D-01  0.13228887D+00  0.12827570D+00  0.86534031D-01
  0.39988538D+00 -0.13349026D-01  0.30164370D-01  0.65782338D-01 -0.11496223D-02
  0.44425295D-02  0.21070513D-02 -0.11852459D-04  0.15826097D-03  0.83219988D-02
 -0.25413651D-02 -0.57806337D-02  0.38258995D-02 -0.71730999D-01  0.70317656D-02
  0.21222098D-02 -0.60352090D-03 -0.15186889D-02 -0.11181477D-02 -0.18267513D-01
  0.43866907D-03  0.95855828D-04 -0.73591772D-06 -0.95119910D-04 -0.30457589D-03
 -0.12188609D-02 -0.11152384D-03 -0.10367133D-01 -0.24821497D-03  0.54069048D-03
  0.21863561D-01  0.71781600D-03 -0.47549054D-02  0.92378383D-02  0.26828915D-04
  0.31328340D-02 -0.16806452D-02 -0.36697485D-03 -0.13213875D-04  0.80800804D-04
  0.59048778D-03 -0.99470263D-04 -0.17882035D-03  0.51043676D-03  0.13911189D-03
 -0.63582058D-04  0.10962052D-02 -0.15626623D-03 -0.28183258D-03 -0.41556197D-03
  0.22214771D-02  0.89925175D-03  0.70775859D-05  0.22390734D-01 -0.10357617D-02
  0.11340303D-02  0.12190836D-01  0.38816397D-03  0.11533276D-02  0.19319175D-02
  0.50779564D-04  0.16678676D-03 -0.80061475D-03  0.15833077D-03  0.64228398D-03
  0.11510172D-01  0.78828864D-02  0.12085044D-02 -0.71613697D-04  0.21194844D-04
  0.50418853D-04  0.11571911D-02  0.62405904D-03  0.14072029D-03 -0.38834326D-02
 -0.70039306D-02 -0.10327292D-01 -0.42912650D-02  0.16176711D-03  0.17837023D-04
  0.27223561D-01  0.33399356D-02 -0.15877095D-02  0.14663079D-01  0.33244619D-03
  0.34622653D-03  0.21932385D-02 -0.73523771D-04  0.17768846D-03 -0.26051802D-03
 -0.21608341D-03  0.47660143D-03 -0.13070734D-01  0.10360149D-01  0.90749372D-03
 -0.10216135D-03  0.31778945D-04  0.70382402D-04 -0.13768679D-02  0.95501910D-03
 -0.13538544D-03
MO    4     MO 0.0        OCC NO =    2.0000000  ORB. ENERGY =    0.000000
  0.49743145D+00  0.92713043D+00  0.15720799D+01  0.23791758D+01  0.29678343D+01
  0.25468434D+01  0.97530571D+00  0.71841578D-03  0.77081298D-02  0.28413618D-01
  0.83079752D-01  0.10011514D+00 -0.12059930D+00 -0.15458613D-01 -0.29703837D-01
 -0.16684726D-02 -0.73530136D-01 -0.71299498D-01 -0.48098220D-01 -0.30197016D-01
 -0.29280947D-01 -0.19752754D-01  0.31267666D-01  0.30319119D-01  0.20453098D-01
 -0.16724798D-01 -0.27173234D-02  0.85551684D-02 -0.25397633D-02  0.78023537D-03
 -0.10462384D-02 -0.82203963D-04  0.23005313D-04 -0.24164444D-04  0.70210939D-02
 -0.61719909D-02 -0.84910300D-03 -0.39139293D-03  0.43032628D-02  0.25311404D-02
  0.23707119D-02 -0.19430923D-02 -0.42761962D-03  0.18885881D-03  0.12326867D-02
 -0.17079699D-02 -0.12123644D-04  0.17142872D-04 -0.50192280D-05  0.41628533D-04
  0.48503171D-04 -0.34093440D-03  0.54543824D-03  0.27829759D-04 -0.38750079D-03
 -0.10944431D-02 -0.10504736D-02 -0.13546638D-02 -0.54187162D-03  0.96698437D-03
  0.25171661D-02 -0.27567430D-03  0.41844793D-04 -0.21550457D-04 -0.43312943D-05
 -0.50622425D-04 -0.12632458D-03 -0.30727871D-03 -0.74911954D-04  0.19097595D-03
  0.32027259D-03 -0.99841713D-04 -0.71321734D-02 -0.12863169D-01 -0.18966734D-01
 -0.45775594D-02  0.12660252D-02  0.41467683D-04 -0.44455206D-03 -0.73528880D-02
 -0.52542193D-02 -0.41931738D-03 -0.50616212D-03 -0.80840538D-03 -0.80599016D-04
  0.18403246D-03  0.38110756D-04  0.11688967D-02 -0.96049781D-03 -0.20839889D-03
 -0.16585273D-03 -0.85988999D-04 -0.34596859D-02 -0.21741923D-04  0.57320592D-04
 -0.35578669D-04 -0.49408039D-04 -0.23252179D-04  0.34325275D-04 -0.99181244D-02
 -0.17887746D-01 -0.26375471D-01 -0.11158119D-01  0.23388861D-03  0.20356424D-04
 -0.24023591D-03  0.11601247D-01 -0.97831123D-02 -0.37577532D-03  0.24525007D-02
 -0.24351130D-02 -0.85152003D-04 -0.49002959D-04 -0.30527549D-04  0.28050828D-02
 -0.20766624D-02 -0.72842042D-03 -0.20712731D-03  0.19175639D-03  0.84643339D-02
 -0.21310229D-04  0.16415823D-04  0.48944062D-05  0.57394642D-04 -0.43646718D-04
 -0.25992960D-04
MO    5     MO 0.0        OCC NO =    2.0000000  ORB. ENERGY =    0.000000
  0.98174640D-01  0.18298139D+00  0.31027065D+00  0.46956164D+00  0.58574114D+00
  0.50265304D+00  0.19248941D+00 -0.15679606D-02 -0.16823189D-01 -0.62013441D-01
 -0.18132366D+00 -0.21850383D+00  0.26321102D+00  0.17353835D+00  0.84510831D-01
  0.64284385D-02  0.18635966D+00  0.18070618D+00  0.12190332D+00  0.79283286D-01
  0.76878118D-01  0.51861524D-01  0.26910412D+00  0.26094048D+00  0.17602890D+00
  0.42471052D-01  0.14202430D-01  0.55979245D-01  0.68014277D-02  0.78527799D-03
  0.11313479D-01  0.23033567D-03  0.15703279D-04  0.21823735D-03 -0.13207445D-01
  0.20303186D-01 -0.70957411D-02  0.14704414D-02 -0.97615945D-02 -0.11134136D-01
 -0.38636627D-02  0.53222829D-02 -0.14586202D-02 -0.18641980D-03 -0.26325801D-02
  0.69761440D-03 -0.65723071D-04  0.15268193D-03 -0.86958863D-04 -0.58026715D-04
 -0.14329401D-03  0.24731819D-03 -0.14545102D-02 -0.92792382D-04  0.24488615D-02
  0.34152157D-02 -0.21951545D-03  0.22115972D-02  0.94831490D-03  0.49789260D-03
 -0.95581817D-02 -0.33500143D-03 -0.39686359D-04  0.52832712D-04 -0.20960515D-03
  0.95397198D-05  0.25042570D-03 -0.63269930D-04  0.10951936D-03 -0.40892384D-03
  0.69208539D-03  0.24709119D-03  0.10195433D-01  0.18387884D-01  0.27112924D-01
 -0.84676590D-03 -0.48401690D-02 -0.94722307D-04  0.15265138D-02  0.11965425D-01
  0.13032270D-01  0.12549849D-02 -0.15825075D-02  0.22002372D-02  0.21765095D-03
 -0.45072545D-03  0.12715760D-03 -0.62088443D-03 -0.69670962D-03  0.13175940D-02
  0.11055980D-02  0.62097473D-03  0.30195719D-02  0.93504018D-04 -0.18070222D-03
  0.87198199D-04  0.14023836D-03  0.76837030D-04 -0.34323703D-04  0.16400312D-01
  0.29578639D-01  0.43613686D-01  0.69404767D-02 -0.42673545D-02 -0.11228212D-03
  0.14878572D-02 -0.16421029D-01  0.19803683D-01  0.14560805D-02  0.86845205D-03
  0.31488102D-02  0.25062375D-03  0.47964618D-03  0.10169322D-03 -0.18369856D-02
 -0.93688362D-04  0.19306739D-02 -0.94882574D-03  0.58251558D-03 -0.67483746D-02
  0.12688257D-03 -0.17474877D-03  0.47866207D-04 -0.17609857D-03  0.12924023D-03
  0.15286777D-03
END DATA
 TOTAL ENERGY =    -76.463197796003 THE VIRIAL(-V/T)=   2.00584739
