 20
GAUSSIAN              5 MOL ORBITALS    126 PRIMITIVES        3 NUCLEI   B3LYP   B3LYP   B3LYP
  O    1    (CENTRE  1)   0.09448631  0.00000000  0.10264236  CHARGE =  8.0
  H    2    (CENTRE  2)   0.00000000 -1.44255835 -1.09730160  CHARGE =  1.0
  H    3    (CENTRE  3)   0.00000000  1.44255835 -1.09730160  CHARGE =  1.0
CENTRE ASSIGNMENTS    1  1  1  1  1  1  1  1  1  1  1  1  1  1  1  1  1  1  1  1
CENTRE ASSIGNMENTS    1  1  1  1  1  1  1  1  1  1  1  1  1  1  1  1  1  1  1  1
CENTRE ASSIGNMENTS    1  1  1  1  1  1  1  1  1  1  1  1  1  1  1  1  1  1  1  1
CENTRE ASSIGNMENTS    1  1  1  1  1  1  1  1  1  1  1  1  2  2  2  2  2  2  2  2
CENTRE ASSIGNMENTS    2  2  2  2  2  2  2  2  2  2  2  2  2  2  2  2  2  2  2  3
CENTRE ASSIGNMENTS    3  3  3  3  3  3  3  3  3  3  3  3  3  3  3  3  3  3  3  3
CENTRE ASSIGNMENTS    3  3  3  3  3  3
TYPE ASSIGNMENTS      1  1  1  1  1  1  1  1  1  1  1  1  1  1  1  1  2  2  2  3
TYPE ASSIGNMENTS      3  3  4  4  4  2  3  4  2  3  4  2  3  4  5  6  7  8  9 10
TYPE ASSIGNMENTS      5  6  7  8  9 10  5  6  7  8  9 10 11 12 13 17 14 15 18 19
TYPE ASSIGNMENTS     16 20 11 12 13 17 14 15 18 19 16 20  1  1  1  1  1  1  2  3
TYPE ASSIGNMENTS      4  2  3  4  2  3  4  5  6  7  8  9 10  5  6  7  8  9 10  1
TYPE ASSIGNMENTS      1  1  1  1  1  2  3  4  2  3  4  2  3  4  5  6  7  8  9 10
TYPE ASSIGNMENTS      5  6  7  8  9 10
EXPONENTS  0.1533000D+05 0.2299000D+04 0.5224000D+03 0.1473000D+03 0.4755000D+02
EXPONENTS  0.1676000D+02 0.6207000D+01 0.5224000D+03 0.1473000D+03 0.4755000D+02
EXPONENTS  0.1676000D+02 0.6207000D+01 0.6882000D+00 0.1752000D+01 0.2384000D+00
EXPONENTS  0.7376000D-01 0.3446000D+02 0.7749000D+01 0.2280000D+01 0.3446000D+02
EXPONENTS  0.7749000D+01 0.2280000D+01 0.3446000D+02 0.7749000D+01 0.2280000D+01
EXPONENTS  0.7156000D+00 0.7156000D+00 0.7156000D+00 0.2140000D+00 0.2140000D+00
EXPONENTS  0.2140000D+00 0.5974000D-01 0.5974000D-01 0.5974000D-01 0.2314000D+01
EXPONENTS  0.2314000D+01 0.2314000D+01 0.2314000D+01 0.2314000D+01 0.2314000D+01
EXPONENTS  0.6450000D+00 0.6450000D+00 0.6450000D+00 0.6450000D+00 0.6450000D+00
EXPONENTS  0.6450000D+00 0.2140000D+00 0.2140000D+00 0.2140000D+00 0.2140000D+00
EXPONENTS  0.2140000D+00 0.2140000D+00 0.1428000D+01 0.1428000D+01 0.1428000D+01
EXPONENTS  0.1428000D+01 0.1428000D+01 0.1428000D+01 0.1428000D+01 0.1428000D+01
EXPONENTS  0.1428000D+01 0.1428000D+01 0.5000000D+00 0.5000000D+00 0.5000000D+00
EXPONENTS  0.5000000D+00 0.5000000D+00 0.5000000D+00 0.5000000D+00 0.5000000D+00
EXPONENTS  0.5000000D+00 0.5000000D+00 0.3387000D+02 0.5095000D+01 0.1159000D+01
EXPONENTS  0.3258000D+00 0.1027000D+00 0.2526000D-01 0.1407000D+01 0.1407000D+01
EXPONENTS  0.1407000D+01 0.3880000D+00 0.3880000D+00 0.3880000D+00 0.1020000D+00
EXPONENTS  0.1020000D+00 0.1020000D+00 0.1057000D+01 0.1057000D+01 0.1057000D+01
EXPONENTS  0.1057000D+01 0.1057000D+01 0.1057000D+01 0.2470000D+00 0.2470000D+00
EXPONENTS  0.2470000D+00 0.2470000D+00 0.2470000D+00 0.2470000D+00 0.3387000D+02
EXPONENTS  0.5095000D+01 0.1159000D+01 0.3258000D+00 0.1027000D+00 0.2526000D-01
EXPONENTS  0.1407000D+01 0.1407000D+01 0.1407000D+01 0.3880000D+00 0.3880000D+00
EXPONENTS  0.3880000D+00 0.1020000D+00 0.1020000D+00 0.1020000D+00 0.1057000D+01
EXPONENTS  0.1057000D+01 0.1057000D+01 0.1057000D+01 0.1057000D+01 0.1057000D+01
EXPONENTS  0.2470000D+00 0.2470000D+00 0.2470000D+00 0.2470000D+00 0.2470000D+00
EXPONENTS  0.2470000D+00
MO    1     MO 0.0        OCC NO =    2.0000000  ORB. ENERGY =    0.000000
 -0.42782594D-02 -0.79739721D-02 -0.13520990D-01 -0.20462581D-01 -0.25525457D-01
 -0.21904640D-01 -0.83883133D-02  0.11588726D-03  0.12433943D-02  0.45833854D-02
  0.13401550D-01  0.16149520D-01 -0.19453808D-01 -0.12193520D-01  0.49077768D-02
  0.16124760D-02  0.17429399D+01  0.16900654D+01  0.11401082D+01 -0.21935965D+00
 -0.21270507D+00 -0.14348958D+00  0.19889463D+00  0.19286088D+00  0.13010281D+00
  0.39360141D+00 -0.46538911D-01  0.42595806D-01  0.65274513D-01 -0.50206974D-02
  0.35835541D-02  0.21179356D-02 -0.58937735D-04 -0.65641312D-05  0.52915797D-02
 -0.12748921D-02 -0.40166876D-02  0.16205092D-02 -0.71136718D-01  0.20583072D-01
  0.32190097D-03  0.10023318D-02 -0.13242328D-02  0.25917470D-03 -0.19343139D-01
  0.32911197D-02 -0.23073661D-03  0.26271885D-03 -0.31982245D-04  0.21660988D-06
 -0.13614054D-02  0.26798950D-05 -0.10367068D-01 -0.91024436D-03 -0.53397101D-03
  0.19759765D-01  0.24862302D-02 -0.44296811D-03  0.11341440D-01  0.24450284D-03
  0.20448811D-02 -0.35534683D-03 -0.53766086D-03 -0.14582173D-04  0.11304176D-03
  0.81999517D-03  0.18740731D-03  0.88691017D-04  0.79298741D-03 -0.14366079D-03
 -0.42781631D-03 -0.52466559D-04 -0.22064801D-02 -0.39794777D-02 -0.58677376D-02
 -0.35260624D-02 -0.67473307D-03 -0.41491930D-04  0.22387571D-01 -0.44266451D-02
  0.43063621D-03  0.12193034D-01 -0.19552460D-02  0.22680592D-03  0.19135052D-02
 -0.11328965D-03  0.67934102D-04  0.76660572D-03 -0.12473687D-02  0.48076300D-03
  0.10974393D-01  0.87894026D-02 -0.49986149D-03  0.76935625D-04 -0.80314091D-04
  0.33784655D-05  0.11017419D-02  0.70766406D-03  0.42524465D-04 -0.13118530D-01
 -0.23659810D-01 -0.34886376D-01 -0.23166261D-01 -0.31814952D-02  0.11140987D-05
  0.21779647D-01  0.91985649D-02 -0.72897388D-02  0.11943026D-01  0.37267482D-02
 -0.29480646D-02  0.19092463D-02 -0.33827766D-05  0.13714245D-04  0.26083443D-02
 -0.17627136D-02 -0.84563075D-03 -0.10544332D-01  0.82873496D-02  0.59607324D-02
  0.12564528D-03 -0.43965491D-04 -0.81679787D-04 -0.10844566D-02  0.68645832D-03
  0.17725158D-03
MO    2     MO 0.0        OCC NO =    2.0000000  ORB. ENERGY =    0.000000
  0.47562745D-01  0.88649136D-01  0.15031707D+00  0.22748890D+00  0.28377447D+00
  0.24352071D+00  0.93255496D-01 -0.55917679D-03 -0.59996000D-02 -0.22115655D-01
 -0.64664879D-01 -0.77924323D-01  0.93868105D-01  0.62283571D-01 -0.13556235D-01
 -0.59222736D-02  0.30098659D+00  0.29185575D+00  0.19688416D+00 -0.13735303D+00
 -0.13318624D+00 -0.89846648D-01 -0.13316433D+01 -0.12912461D+01 -0.87106696D+00
  0.68701038D-01 -0.29140548D-01 -0.29199069D+00  0.12537011D-01 -0.31437323D-02
 -0.34717811D-01  0.44610990D-03 -0.36904128D-04 -0.65589627D-03 -0.44265682D-01
  0.62561225D-02  0.38009559D-01  0.10146891D-02 -0.33295824D-02  0.12888183D-01
 -0.77189453D-02 -0.36067119D-02  0.11325657D-01  0.16228340D-03 -0.14656221D-02
  0.20607494D-02  0.44993502D-03 -0.10225799D-02  0.57264486D-03  0.13563125D-06
 -0.30790753D-03  0.16780283D-05 -0.90872284D-03 -0.56995360D-03 -0.12807200D-02
  0.34088590D-02  0.15567642D-02  0.19033145D-01 -0.68269047D-03  0.15309655D-03
 -0.15190985D-01 -0.22250201D-03 -0.74531380D-04 -0.91306934D-05 -0.70004378D-03
  0.31388240D-03  0.11734593D-03  0.66177257D-03 -0.90288254D-04 -0.89953848D-04
  0.14383588D-02 -0.32852172D-04  0.34397533D-01  0.62037367D-01  0.91474061D-01
  0.58817586D-01  0.80699176D-02  0.59379187D-04  0.60095932D-02  0.29164908D-01
  0.96169515D-02  0.30587040D-02  0.11653912D-01  0.25163554D-02  0.38822021D-03
  0.15062821D-03 -0.76381742D-03 -0.44067705D-02  0.60396882D-02 -0.16329177D-02
  0.34529448D-02  0.25153001D-02  0.10987809D-01 -0.17731705D-03  0.22508189D-03
 -0.47764836D-04  0.25586660D-03  0.18956763D-03 -0.28303661D-04  0.27564903D-01
  0.49714438D-01  0.73303910D-01  0.46519788D-01  0.65002972D-02  0.86057144D-04
  0.56289389D-02 -0.26176949D-01  0.47828039D-02  0.29021604D-02 -0.10544678D-01
  0.52839594D-03  0.38555349D-03 -0.22368317D-03 -0.79776743D-03 -0.32535576D-02
  0.57170027D-02 -0.24634451D-02 -0.31836598D-02  0.22009373D-02 -0.75684602D-02
 -0.14681728D-03  0.24784173D-03 -0.10102444D-03 -0.24504334D-03  0.17628956D-03
  0.16591742D-03
MO    3     MO 0.0        OCC NO =    2.0000000  ORB. ENERGY =    0.000000
  0.49215107D+00  0.91728866D+00  0.15553918D+01  0.23539201D+01  0.29363298D+01
  0.25198079D+01  0.96495254D+00  0.84180997D-03  0.90320685D-02  0.33293905D-01
  0.97349426D-01  0.11731079D+00 -0.14131328D+00 -0.28502794D-01 -0.43407774D-01
 -0.32653932D-02 -0.32690423D-01 -0.31698714D-01 -0.21383765D-01 -0.21878924D-01
 -0.21215197D-01 -0.14311646D-01 -0.13386312D+00 -0.12980220D+00 -0.87563796D-01
 -0.69729788D-02 -0.46417894D-02 -0.25002432D-01 -0.12019426D-02 -0.50076420D-03
 -0.46798759D-02 -0.33705104D-04 -0.58784478D-05 -0.83048289D-04  0.41822880D-02
 -0.68174993D-02  0.26352114D-02  0.16162953D-03  0.64740303D-03  0.20529550D-02
  0.26303271D-02 -0.30362296D-02  0.40590251D-03  0.25850076D-04 -0.10777981D-03
  0.32825617D-03  0.15453823D-03 -0.17354862D-03  0.19010397D-04  0.21604662D-07
 -0.35998836D-05  0.26729262D-06  0.93354076D-04 -0.90787742D-04 -0.83518845D-03
 -0.14890806D-04  0.24797652D-03 -0.50089362D-03 -0.26517142D-03  0.24386706D-04
  0.30064590D-02 -0.35442281D-04 -0.26068985D-04 -0.14544255D-05 -0.77525111D-04
  0.40103278D-04  0.18691999D-04 -0.41561651D-03  0.38103676D-04 -0.14328722D-04
  0.64819184D-03 -0.52330129D-05 -0.53268069D-02 -0.96071155D-02 -0.14165686D-01
  0.35383259D-03  0.23472401D-02  0.52445693D-04 -0.83448878D-03 -0.60867981D-02
 -0.69573419D-02 -0.24061572D-03  0.44359187D-03 -0.10734280D-02 -0.29047710D-04
  0.17827223D-03 -0.58207970D-04  0.10933992D-02 -0.38137012D-03 -0.71202904D-03
 -0.43677982D-03 -0.39938617D-03 -0.37536503D-02 -0.36962363D-04  0.50254197D-04
 -0.13291834D-04 -0.13154380D-04 -0.54686247D-05  0.11731917D-04 -0.64151744D-02
 -0.11570031D-01 -0.17060004D-01 -0.16050802D-02  0.20972157D-02  0.56695217D-04
 -0.89512309D-03  0.65627492D-02 -0.77273719D-02 -0.26555151D-03 -0.26690229D-03
 -0.13900894D-02 -0.29472492D-04 -0.18990913D-03 -0.63615857D-04  0.12770941D-02
 -0.43277060D-03 -0.84432351D-03  0.47967414D-03 -0.44946092D-03  0.42983174D-02
 -0.32104064D-04  0.53879605D-04 -0.21775541D-04  0.14878415D-04 -0.75836844D-05
  0.10188538D-04
MO    4     MO 0.0        OCC NO =    2.0000000  ORB. ENERGY =    0.000000
  0.11983453D+00  0.22335186D+00  0.37872447D+00  0.57315922D+00  0.71497095D+00
  0.61355144D+00  0.23495761D+00 -0.14243086D-02 -0.15281897D-01 -0.56331949D-01
 -0.16471131D+00 -0.19848514D+00  0.23909639D+00  0.16181743D+00  0.97543899D-01
  0.93744623D-02  0.39653412D-02  0.38450471D-02  0.25938460D-02 -0.11800531D+00
 -0.11442546D+00 -0.77190739D-01  0.82576393D+00  0.80071324D+00  0.54015642D+00
  0.61180782D-04 -0.25035775D-01  0.17596964D+00 -0.35679866D-03 -0.27009023D-02
  0.24645177D-01 -0.40042833D-04 -0.31705767D-04  0.44250714D-03  0.50017097D-02
  0.15747790D-01 -0.20749500D-01  0.87175876D-03 -0.16165475D-02  0.11072738D-01
 -0.16147976D-02  0.71896344D-02 -0.55748368D-02  0.13942396D-03  0.46894585D-04
  0.17704697D-02 -0.38619203D-03  0.67695782D-03 -0.29076579D-03  0.11652607D-06
  0.64363562D-04  0.14416592D-05 -0.21910967D-04 -0.48966924D-03  0.29350031D-02
 -0.10062297D-02  0.13374765D-02 -0.48187212D-02  0.10719626D-02  0.13153119D-03
 -0.39862881D-02 -0.19116011D-03  0.12636888D-04 -0.78445327D-05  0.20666451D-03
 -0.72703932D-04  0.10081644D-03 -0.80296764D-04  0.34793269D-04 -0.77282839D-04
 -0.53969677D-03 -0.28224575D-04  0.22204129D-02  0.40046062D-02  0.59047894D-02
 -0.15799228D-01 -0.73300755D-02 -0.15313681D-03  0.35964689D-03  0.26833490D-02
  0.14602874D-01 -0.23769495D-03 -0.55521265D-02  0.24472537D-02 -0.35554899D-04
 -0.56785094D-03  0.40538655D-03  0.20164606D-03 -0.27901085D-02  0.25884625D-02
 -0.29213112D-03  0.65960848D-04  0.12344372D-02  0.14025686D-03 -0.24307871D-03
  0.10282185D-03 -0.35372088D-04 -0.31378076D-04  0.44272709D-04 -0.36497639D-02
 -0.65824995D-02 -0.97058917D-02 -0.26364743D-01 -0.86785972D-02 -0.13021675D-03
  0.32612003D-04 -0.11627748D-03  0.10449670D-01 -0.37218763D-03  0.65051126D-02
  0.73932061D-03 -0.37845983D-04  0.50508658D-03  0.37621878D-03  0.11924160D-02
 -0.30673402D-02  0.18749242D-02  0.52348426D-03 -0.20412039D-03  0.17032580D-02
  0.16646039D-03 -0.22352485D-03  0.57064460D-04  0.44670772D-04 -0.42785779D-04
  0.73956606D-04
MO    5     MO 0.0        OCC NO =    2.0000000  ORB. ENERGY =    0.000000
  0.21223019D-01  0.39556217D-01  0.67073125D-01  0.10150804D+00  0.12662328D+00
  0.10866161D+00  0.41611626D-01 -0.13987727D-03 -0.15007913D-02 -0.55321994D-02
 -0.16175826D-01 -0.19492657D-01  0.23480972D-01  0.16943051D-01  0.68014678D-02
  0.40010722D-03  0.29460305D+00  0.28566586D+00  0.19270850D+00  0.14372723D+01
  0.13936707D+01  0.94016199D+00 -0.31142349D-01 -0.30197602D-01 -0.20371124D-01
  0.66536606D-01  0.30492886D+00 -0.73358948D-02  0.11112849D-01  0.32896248D-01
 -0.81866052D-03  0.36207576D-03  0.38616754D-03 -0.28615355D-04 -0.29483168D-02
  0.15924615D-02  0.13558553D-02 -0.10617782D-01 -0.11298103D-01 -0.13486291D+00
 -0.78107287D-03  0.35237858D-03  0.42869429D-03 -0.16981456D-02 -0.30900450D-02
 -0.21563835D-01 -0.21572771D-04 -0.46873273D-05  0.26260098D-04 -0.14192555D-05
 -0.23197619D-03 -0.17559012D-04 -0.16694647D-02  0.59640368D-02  0.24372882D-04
  0.32587046D-02 -0.16290097D-01  0.13480376D-02  0.17496895D-02 -0.16020137D-02
 -0.14211563D-02  0.23282776D-02 -0.88540876D-04  0.95544253D-04 -0.33859268D-04
  0.14978687D-03 -0.12279165D-02  0.63859166D-04  0.11583576D-03  0.94128374D-03
  0.37718639D-04  0.34376757D-03 -0.34105365D-01 -0.61510431D-01 -0.90697095D-01
 -0.63086604D-01 -0.84337407D-02  0.13264662D-03  0.19379083D-02 -0.14009843D-01
 -0.24211125D-01  0.12787431D-02 -0.56660123D-02 -0.10351190D-01  0.31128018D-03
  0.35048101D-03 -0.21485441D-03  0.60004403D-02 -0.16028963D-02 -0.43975440D-02
  0.50986449D-03 -0.12839069D-03 -0.17577041D-01  0.17161275D-03  0.11383156D-03
 -0.28544431D-03  0.13063897D-03  0.51253336D-04 -0.74076867D-03  0.37391776D-01
  0.67437607D-01  0.99436713D-01  0.65598473D-01  0.79908836D-02 -0.14651350D-03
  0.59211033D-02 -0.17256383D-01  0.26373754D-01  0.29168270D-02 -0.59410958D-02
  0.10450966D-01  0.33918496D-03  0.41397159D-03  0.14040098D-03 -0.60668653D-02
  0.17737087D-02  0.42931566D-02 -0.33276822D-02  0.31611246D-02 -0.18203279D-01
 -0.14753909D-03 -0.12432909D-03  0.27186817D-03 -0.24389439D-03  0.19019603D-03
 -0.69923191D-03
END DATA
 TOTAL ENERGY =    -76.464114905867 THE VIRIAL(-V/T)=   2.00733839
