 20
GAUSSIAN              5 MOL ORBITALS    126 PRIMITIVES        3 NUCLEI   B3LYP   B3LYP   B3LYP
  O    1    (CENTRE  1)   0.09448631  0.00000000 -0.08633025  CHARGE =  8.0
  H    2    (CENTRE  2)   0.00000000 -1.44255835 -1.09730160  CHARGE =  1.0
  H    3    (CENTRE  3)   0.00000000  1.44255835 -1.09730160  CHARGE =  1.0
CENTRE ASSIGNMENTS    1  1  1  1  1  1  1  1  1  1  1  1  1  1  1  1  1  1  1  1
CENTRE ASSIGNMENTS    1  1  1  1  1  1  1  1  1  1  1  1  1  1  1  1  1  1  1  1
CENTRE ASSIGNMENTS    1  1  1  1  1  1  1  1  1  1  1  1  1  1  1  1  1  1  1  1
CENTRE ASSIGNMENTS    1  1  1  1  1  1  1  1  1  1  1  1  2  2  2  2  2  2  2  2
CENTRE ASSIGNMENTS    2  2  2  2  2  2  2  2  2  2  2  2  2  2  2  2  2  2  2  3
CENTRE ASSIGNMENTS    3  3  3  3  3  3  3  3  3  3  3  3  3  3  3  3  3  3  3  3
CENTRE ASSIGNMENTS    3  3  3  3  3  3
TYPE ASSIGNMENTS      1  1  1  1  1  1  1  1  1  1  1  1  1  1  1  1  2  2  2  3
TYPE ASSIGNMENTS      3  3  4  4  4  2  3  4  2  3  4  2  3  4  5  6  7  8  9 10
TYPE ASSIGNMENTS      5  6  7  8  9 10  5  6  7  8  9 10 11 12 13 17 14 15 18 19
TYPE ASSIGNMENTS     16 20 11 12 13 17 14 15 18 19 16 20  1  1  1  1  1  1  2  3
TYPE ASSIGNMENTS      4  2  3  4  2  3  4  5  6  7  8  9 10  5  6  7  8  9 10  1
TYPE ASSIGNMENTS      1  1  1  1  1  2  3  4  2  3  4  2  3  4  5  6  7  8  9 10
TYPE ASSIGNMENTS      5  6  7  8  9 10
EXPONENTS  0.1533000D+05 0.2299000D+04 0.5224000D+03 0.1473000D+03 0.4755000D+02
EXPONENTS  0.1676000D+02 0.6207000D+01 0.5224000D+03 0.1473000D+03 0.4755000D+02
EXPONENTS  0.1676000D+02 0.6207000D+01 0.6882000D+00 0.1752000D+01 0.2384000D+00
EXPONENTS  0.7376000D-01 0.3446000D+02 0.7749000D+01 0.2280000D+01 0.3446000D+02
EXPONENTS  0.7749000D+01 0.2280000D+01 0.3446000D+02 0.7749000D+01 0.2280000D+01
EXPONENTS  0.7156000D+00 0.7156000D+00 0.7156000D+00 0.2140000D+00 0.2140000D+00
EXPONENTS  0.2140000D+00 0.5974000D-01 0.5974000D-01 0.5974000D-01 0.2314000D+01
EXPONENTS  0.2314000D+01 0.2314000D+01 0.2314000D+01 0.2314000D+01 0.2314000D+01
EXPONENTS  0.6450000D+00 0.6450000D+00 0.6450000D+00 0.6450000D+00 0.6450000D+00
EXPONENTS  0.6450000D+00 0.2140000D+00 0.2140000D+00 0.2140000D+00 0.2140000D+00
EXPONENTS  0.2140000D+00 0.2140000D+00 0.1428000D+01 0.1428000D+01 0.1428000D+01
EXPONENTS  0.1428000D+01 0.1428000D+01 0.1428000D+01 0.1428000D+01 0.1428000D+01
EXPONENTS  0.1428000D+01 0.1428000D+01 0.5000000D+00 0.5000000D+00 0.5000000D+00
EXPONENTS  0.5000000D+00 0.5000000D+00 0.5000000D+00 0.5000000D+00 0.5000000D+00
EXPONENTS  0.5000000D+00 0.5000000D+00 0.3387000D+02 0.5095000D+01 0.1159000D+01
EXPONENTS  0.3258000D+00 0.1027000D+00 0.2526000D-01 0.1407000D+01 0.1407000D+01
EXPONENTS  0.1407000D+01 0.3880000D+00 0.3880000D+00 0.3880000D+00 0.1020000D+00
EXPONENTS  0.1020000D+00 0.1020000D+00 0.1057000D+01 0.1057000D+01 0.1057000D+01
EXPONENTS  0.1057000D+01 0.1057000D+01 0.1057000D+01 0.2470000D+00 0.2470000D+00
EXPONENTS  0.2470000D+00 0.2470000D+00 0.2470000D+00 0.2470000D+00 0.3387000D+02
EXPONENTS  0.5095000D+01 0.1159000D+01 0.3258000D+00 0.1027000D+00 0.2526000D-01
EXPONENTS  0.1407000D+01 0.1407000D+01 0.1407000D+01 0.3880000D+00 0.3880000D+00
EXPONENTS  0.3880000D+00 0.1020000D+00 0.1020000D+00 0.1020000D+00 0.1057000D+01
EXPONENTS  0.1057000D+01 0.1057000D+01 0.1057000D+01 0.1057000D+01 0.1057000D+01
EXPONENTS  0.2470000D+00 0.2470000D+00 0.2470000D+00 0.2470000D+00 0.2470000D+00
EXPONENTS  0.2470000D+00
MO    1     MO 0.0        OCC NO =    2.0000000  ORB. ENERGY =    0.000000
 -0.38010887D-01 -0.70846044D-01 -0.12012942D+00 -0.18180311D+00 -0.22678505D+00
 -0.19461531D+00 -0.74527325D-01 -0.51401602D-05 -0.55150546D-04 -0.20329530D-03
 -0.59442352D-03 -0.71630925D-03  0.86287040D-03 -0.41465176D-02  0.53941401D-01
  0.90429693D-02  0.12406091D+00  0.12029735D+00  0.81151883D-01 -0.51942700D-01
 -0.50366946D-01 -0.33977244D-01  0.15989492D+01  0.15504429D+01  0.10459196D+01
  0.26630912D-01 -0.10450756D-01  0.34621190D+00  0.29689294D-02 -0.82685171D-03
  0.41713310D-01  0.51730644D-04 -0.60316314D-05  0.86691373D-03  0.43576810D-01
 -0.34427391D-02 -0.40134071D-01  0.44316300D-03 -0.14718345D-01  0.47417722D-02
  0.52168619D-02  0.65896970D-02 -0.11806559D-01  0.44708469D-04 -0.29512559D-02
  0.47833543D-03 -0.10103790D-02  0.16703615D-02 -0.65998254D-03 -0.69572490D-05
  0.81813513D-04 -0.74468956D-04 -0.15584090D-02 -0.26107541D-03  0.38530568D-03
  0.12263796D-02  0.46503906D-03 -0.18011945D-01  0.34488474D-02  0.31818717D-03
  0.16856028D-01 -0.27719812D-04  0.18296839D-04 -0.60317364D-05  0.63935421D-03
 -0.19776378D-03  0.17207815D-04  0.17160883D-03  0.14287327D-03  0.88739392D-06
 -0.20896715D-02 -0.30795455D-05 -0.27475419D-01 -0.49553049D-01 -0.73065942D-01
 -0.55538549D-01 -0.82829063D-02 -0.10844350D-03 -0.19406121D-03 -0.28748986D-01
  0.19332173D-02 -0.18472337D-04 -0.12659515D-01  0.19856724D-02  0.87371151D-04
 -0.14255288D-03  0.12672684D-02  0.36689768D-02 -0.81627658D-02  0.44937890D-02
 -0.77402710D-03  0.23811096D-04 -0.62680520D-02  0.53024499D-04 -0.23109726D-03
  0.17807276D-03  0.59019980D-04  0.11202361D-04  0.85169798D-03 -0.30228499D-01
 -0.54518344D-01 -0.80387266D-01 -0.60782039D-01 -0.88942312D-02 -0.10227876D-03
 -0.38798061D-03  0.30631964D-01 -0.14167702D-03 -0.93156215D-04  0.13337202D-01
  0.11866400D-02  0.86065228D-04  0.13324605D-03  0.12532706D-02  0.42311164D-02
 -0.85761986D-02  0.43450821D-02  0.92997556D-03 -0.11023615D-03  0.79365284D-02
  0.48604128D-04 -0.21878045D-03  0.17017632D-03 -0.56040058D-04  0.10544883D-04
 -0.81976655D-03
MO    2     MO 0.0        OCC NO =    2.0000000  ORB. ENERGY =    0.000000
 -0.89650133D-02 -0.16709311D-01 -0.28332984D-01 -0.42878959D-01 -0.53488122D-01
 -0.45900766D-01 -0.17577555D-01  0.82926568D-05  0.88974766D-04  0.32797774D-03
  0.95898767D-03  0.11556268D-02 -0.13920749D-02 -0.19101708D-02 -0.31469414D-04
  0.39024789D-04  0.17718615D+01  0.17181096D+01  0.11590266D+01 -0.15171984D+00
 -0.14711720D+00 -0.99244397D-01 -0.15255747D+00 -0.14792943D+00 -0.99792322D-01
  0.39978233D+00 -0.30525693D-01 -0.34530606D-01  0.64887065D-01 -0.24151576D-02
 -0.57493490D-02  0.20441655D-02 -0.17617839D-04 -0.18450164D-03 -0.63003237D-02
 -0.22466327D-03  0.65249870D-02  0.12944383D-02 -0.72594076D-01  0.13850279D-01
 -0.15905985D-02  0.29735198D-04  0.15608633D-02  0.13058932D-03 -0.17624388D-01
  0.13971737D-02 -0.10960815D-03  0.14842017D-04  0.94766136D-04 -0.20321483D-04
 -0.10640239D-02 -0.21751695D-03 -0.10572159D-01 -0.76257720D-03 -0.73350508D-03
  0.24402162D-01  0.13583362D-02  0.42077949D-02  0.73143139D-02  0.92939538D-03
 -0.20072797D-02 -0.80967015D-04 -0.19769652D-03 -0.17618146D-04 -0.30409105D-04
  0.16177234D-03  0.50262442D-04  0.14618796D-03  0.43131724D-03  0.25919958D-05
 -0.54960646D-04 -0.89950683D-05  0.36769862D-02  0.66315960D-02  0.97782844D-02
  0.71331407D-02  0.84826304D-03 -0.92557729D-05  0.26417150D-01  0.24106730D-02
  0.50714258D-03  0.14357400D-01  0.89801098D-03 -0.15491478D-03  0.21683134D-02
 -0.10509609D-04 -0.17018907D-03  0.44479153D-04  0.55236946D-03 -0.59684861D-03
  0.13364570D-01  0.91529136D-02  0.11679928D-02  0.84656216D-04 -0.18314787D-04
 -0.66341429D-04  0.14385352D-02  0.84067384D-03 -0.77698869D-04 -0.43645084D-02
 -0.78715707D-02 -0.11606626D-01 -0.81826107D-02 -0.93736066D-03  0.87508638D-05
  0.25850729D-01  0.30893298D-02 -0.55534324D-02  0.14139255D-01  0.10814502D-02
 -0.24888149D-02  0.21644989D-02 -0.16674792D-04 -0.21107540D-03  0.16864371D-02
 -0.65522939D-03 -0.10312077D-02 -0.12909059D-01  0.87613740D-02  0.37054731D-02
  0.71744721D-04  0.17661478D-04 -0.89406199D-04 -0.14298311D-02  0.83875341D-03
  0.17096765D-03
MO    3     MO 0.0        OCC NO =    2.0000000  ORB. ENERGY =    0.000000
  0.23488714D-01  0.43779100D-01  0.74233616D-01  0.11234468D+00  0.14014114D+00
  0.12026195D+00  0.46053936D-01 -0.21821405D-03 -0.23412935D-02 -0.86304488D-02
 -0.25234926D-01 -0.30409313D-01  0.36631240D-01  0.25261045D-01  0.13992892D-01
  0.12966256D-02  0.19330321D+00  0.18743909D+00  0.12644530D+00  0.14526840D+01
  0.14086148D+01  0.95024325D+00  0.86046978D-01  0.83436624D-01  0.56285854D-01
  0.43503280D-01  0.29227679D+00  0.18211478D-01  0.70388279D-02  0.23124602D-01
  0.27051059D-02  0.21828112D-03  0.16868693D-03  0.47785324D-04 -0.10838867D-02
  0.33324108D-02 -0.22485241D-02 -0.12393961D-01 -0.79998361D-02 -0.13261337D+00
 -0.47700415D-03  0.10207926D-02 -0.54378842D-03 -0.12503639D-02 -0.19022986D-02
 -0.13377630D-01 -0.56302870D-04  0.81776763D-04 -0.25473894D-04  0.19457372D-03
 -0.10854826D-03  0.20826769D-02 -0.11275947D-02  0.73015088D-02  0.29955763D-03
  0.24556174D-02 -0.13005770D-01  0.11698886D-03  0.92716684D-03 -0.88987562D-02
 -0.10156617D-02  0.77524134D-03 -0.22845306D-04  0.16868987D-03 -0.33104556D-04
  0.27522632D-04 -0.48125181D-03 -0.99465258D-05  0.41013286D-04 -0.24817789D-04
  0.10926019D-03  0.86125799D-04 -0.37654749D-01 -0.67911891D-01 -0.10013604D+00
 -0.75195848D-01 -0.95520905D-02  0.67080537D-04  0.22126088D-03 -0.25386635D-01
 -0.26897978D-01  0.47424458D-03 -0.10235504D-01 -0.10874717D-01  0.21278906D-03
  0.52401385D-04 -0.14759090D-03  0.79802838D-02 -0.62088060D-02 -0.17714778D-02
 -0.77981584D-03 -0.87701930D-03 -0.23052869D-01 -0.29410813D-04  0.13036984D-03
 -0.10095903D-03  0.10847987D-03  0.76627512D-04 -0.44447545D-03  0.39340791D-01
  0.70952737D-01  0.10461977D+00  0.71449100D-01  0.75448634D-02 -0.10532904D-03
  0.56446143D-02 -0.27274682D-01  0.31130693D-01  0.25629322D-02 -0.87174013D-02
  0.11471862D-01  0.24931187D-03  0.20788327D-03  0.24388677D-03 -0.77411024D-02
  0.53536872D-02  0.23874152D-02 -0.35816024D-02  0.28718867D-02 -0.23609493D-01
  0.94213912D-04 -0.21409498D-03  0.11988107D-03 -0.19181950D-03  0.95015228D-04
 -0.44855261D-03
MO    4     MO 0.0        OCC NO =    2.0000000  ORB. ENERGY =    0.000000
  0.34864241D+00  0.64981213D+00  0.11018478D+01  0.16675295D+01  0.20801116D+01
  0.17850452D+01  0.68357747D+00  0.14946346D-02  0.16036449D-01  0.59113369D-01
  0.17284402D+00  0.20828545D+00 -0.25090190D+00 -0.11329317D+00 -0.73205366D-01
 -0.53378935D-02  0.56447940D-02  0.54735513D-02  0.36924254D-02  0.10129487D+00
  0.98221950D-01  0.66259947D-01 -0.17281043D+00 -0.16756799D+00 -0.11304038D+00
  0.15850580D-02  0.20380302D-01 -0.35660928D-01 -0.46967825D-04  0.16124660D-02
 -0.90438525D-02  0.81120352D-05  0.11762448D-04 -0.18233783D-03  0.13451607D-01
 -0.19934749D-01  0.64831415D-02 -0.86422422D-03 -0.22311784D-02 -0.92470587D-02
  0.36605513D-02 -0.46976510D-02  0.10370996D-02 -0.87187200D-04 -0.71689979D-03
 -0.93281491D-03 -0.18241827D-04 -0.21540983D-04  0.39782810D-04  0.13567520D-04
 -0.24820438D-05  0.14522393D-03 -0.31265821D-03  0.50913025D-03 -0.15766761D-02
  0.92026711D-03 -0.90688531D-03 -0.19061387D-02  0.17707522D-04 -0.62050545D-03
  0.66361670D-02  0.54057159D-04 -0.84937834D-05  0.11762653D-04  0.21263961D-03
 -0.52131970D-04 -0.33557428D-04 -0.58602993D-04  0.77613320D-04 -0.17305310D-05
 -0.57931584D-03  0.60055053D-05 -0.17719667D-01 -0.31958150D-01 -0.47122273D-01
 -0.13241416D-01  0.28523092D-02  0.93802684D-04 -0.13756005D-02 -0.19036007D-01
 -0.18161378D-01 -0.19075405D-03 -0.10316678D-02 -0.39184087D-02  0.14733048D-04
  0.40483526D-03 -0.12767375D-03  0.30213257D-02 -0.17254018D-02 -0.12959239D-02
 -0.79612965D-03 -0.70094228D-03 -0.10249605D-01 -0.12305775D-03  0.20282770D-03
 -0.79769942D-04  0.23158327D-04  0.18776610D-04  0.58825176D-04 -0.12350810D-01
 -0.22275194D-01 -0.32844761D-01 -0.30159437D-02  0.40444705D-02  0.81780657D-04
 -0.99743305D-03  0.15363962D-01 -0.14115070D-01 -0.45110988D-04 -0.28990806D-03
 -0.23601938D-02  0.17279764D-04 -0.38668575D-03 -0.10037623D-03  0.19250819D-02
 -0.91915537D-03 -0.10059266D-02  0.49201031D-03 -0.43953309D-03  0.69958635D-02
 -0.11443747D-03  0.17880835D-03 -0.64370882D-04 -0.28969554D-04  0.20058775D-04
 -0.12109554D-03
MO    5     MO 0.0        OCC NO =    2.0000000  ORB. ENERGY =    0.000000
  0.36825986D+00  0.68637582D+00  0.11638467D+01  0.17613582D+01  0.21971555D+01
  0.18854863D+01  0.72204108D+00 -0.84301498D-03 -0.90449975D-02 -0.33341564D-01
 -0.97488777D-01 -0.11747872D+00  0.14151556D+00  0.13018298D+00  0.51185783D-01
  0.43886843D-02  0.30917827D-01  0.29979892D-01  0.20224258D-01 -0.19761026D+00
 -0.19161548D+00 -0.12926267D+00  0.24080994D+00  0.23350464D+00  0.15752085D+00
  0.66741873D-02 -0.39758744D-01  0.51105907D-01  0.11212278D-02 -0.31456659D-02
  0.86997340D-02  0.25746193D-04 -0.22946675D-04  0.17159944D-03 -0.76897787D-02
  0.15356304D-01 -0.76665254D-02  0.16859647D-02 -0.34800420D-03  0.18039548D-01
 -0.17802404D-02  0.33411374D-02 -0.15608970D-02  0.17008843D-03 -0.44489381D-04
  0.18197742D-02 -0.73511063D-04  0.13966326D-03 -0.66152192D-04 -0.26468085D-04
 -0.38147190D-05 -0.28330891D-03  0.77144896D-04 -0.99323254D-03  0.18558087D-02
 -0.53407679D-03  0.17691897D-02  0.13868150D-02  0.30264211D-03  0.12105079D-02
 -0.69542411D-02 -0.10545696D-03 -0.25318982D-04 -0.22947074D-04 -0.27907092D-03
  0.10338178D-03  0.65465231D-04 -0.26050662D-03 -0.27424830D-04  0.33759921D-05
  0.10977194D-02 -0.11715790D-04  0.11574900D-01  0.20875809D-01  0.30781368D-01
  0.77262877D-02 -0.21555757D-02 -0.79423468D-04  0.13330069D-02  0.97696460D-02
  0.12934047D-01  0.32033552D-03 -0.99390796D-03  0.27035591D-02  0.23098064D-04
 -0.35244987D-03  0.13722042D-03 -0.62515638D-03 -0.79502849D-03  0.14201849D-02
  0.40268255D-03  0.42937799D-03  0.36406753D-02  0.11233365D-03 -0.17398141D-03
  0.61647757D-04  0.65686489D-05 -0.54684948D-05 -0.23765260D-05  0.11011094D-02
  0.19858961D-02  0.29282027D-02 -0.12221991D-01 -0.44812938D-02 -0.55970396D-04
  0.59526195D-03 -0.26060673D-02  0.50403413D-02  0.36208965D-04  0.35720932D-02
 -0.33627146D-03  0.18129826D-04  0.31704305D-03  0.83967268D-04  0.15134416D-02
 -0.23678876D-02  0.85444593D-03  0.19060614D-03 -0.80589956D-04  0.27068589D-02
  0.95516839D-04 -0.12712347D-03  0.31606627D-04  0.47681348D-05 -0.79697967D-05
  0.12385615D-03
END DATA
 TOTAL ENERGY =    -76.464340857731 THE VIRIAL(-V/T)=   2.00457188
