 20
GAUSSIAN              5 MOL ORBITALS    126 PRIMITIVES        3 NUCLEI   B3LYP   B3LYP   B3LYP
  O    1    (CENTRE  1)  -0.09448631  0.00000000 -0.08633025  CHARGE =  8.0
  H    2    (CENTRE  2)   0.00000000 -1.44255835 -1.09730160  CHARGE =  1.0
  H    3    (CENTRE  3)   0.00000000  1.44255835 -1.09730160  CHARGE =  1.0
CENTRE ASSIGNMENTS    1  1  1  1  1  1  1  1  1  1  1  1  1  1  1  1  1  1  1  1
CENTRE ASSIGNMENTS    1  1  1  1  1  1  1  1  1  1  1  1  1  1  1  1  1  1  1  1
CENTRE ASSIGNMENTS    1  1  1  1  1  1  1  1  1  1  1  1  1  1  1  1  1  1  1  1
CENTRE ASSIGNMENTS    1  1  1  1  1  1  1  1  1  1  1  1  2  2  2  2  2  2  2  2
CENTRE ASSIGNMENTS    2  2  2  2  2  2  2  2  2  2  2  2  2  2  2  2  2  2  2  3
CENTRE ASSIGNMENTS    3  3  3  3  3  3  3  3  3  3  3  3  3  3  3  3  3  3  3  3
CENTRE ASSIGNMENTS    3  3  3  3  3  3
TYPE ASSIGNMENTS      1  1  1  1  1  1  1  1  1  1  1  1  1  1  1  1  2  2  2  3
TYPE ASSIGNMENTS      3  3  4  4  4  2  3  4  2  3  4  2  3  4  5  6  7  8  9 10
TYPE ASSIGNMENTS      5  6  7  8  9 10  5  6  7  8  9 10 11 12 13 17 14 15 18 19
TYPE ASSIGNMENTS     16 20 11 12 13 17 14 15 18 19 16 20  1  1  1  1  1  1  2  3
TYPE ASSIGNMENTS      4  2  3  4  2  3  4  5  6  7  8  9 10  5  6  7  8  9 10  1
TYPE ASSIGNMENTS      1  1  1  1  1  2  3  4  2  3  4  2  3  4  5  6  7  8  9 10
TYPE ASSIGNMENTS      5  6  7  8  9 10
EXPONENTS  0.1533000D+05 0.2299000D+04 0.5224000D+03 0.1473000D+03 0.4755000D+02
EXPONENTS  0.1676000D+02 0.6207000D+01 0.5224000D+03 0.1473000D+03 0.4755000D+02
EXPONENTS  0.1676000D+02 0.6207000D+01 0.6882000D+00 0.1752000D+01 0.2384000D+00
EXPONENTS  0.7376000D-01 0.3446000D+02 0.7749000D+01 0.2280000D+01 0.3446000D+02
EXPONENTS  0.7749000D+01 0.2280000D+01 0.3446000D+02 0.7749000D+01 0.2280000D+01
EXPONENTS  0.7156000D+00 0.7156000D+00 0.7156000D+00 0.2140000D+00 0.2140000D+00
EXPONENTS  0.2140000D+00 0.5974000D-01 0.5974000D-01 0.5974000D-01 0.2314000D+01
EXPONENTS  0.2314000D+01 0.2314000D+01 0.2314000D+01 0.2314000D+01 0.2314000D+01
EXPONENTS  0.6450000D+00 0.6450000D+00 0.6450000D+00 0.6450000D+00 0.6450000D+00
EXPONENTS  0.6450000D+00 0.2140000D+00 0.2140000D+00 0.2140000D+00 0.2140000D+00
EXPONENTS  0.2140000D+00 0.2140000D+00 0.1428000D+01 0.1428000D+01 0.1428000D+01
EXPONENTS  0.1428000D+01 0.1428000D+01 0.1428000D+01 0.1428000D+01 0.1428000D+01
EXPONENTS  0.1428000D+01 0.1428000D+01 0.5000000D+00 0.5000000D+00 0.5000000D+00
EXPONENTS  0.5000000D+00 0.5000000D+00 0.5000000D+00 0.5000000D+00 0.5000000D+00
EXPONENTS  0.5000000D+00 0.5000000D+00 0.3387000D+02 0.5095000D+01 0.1159000D+01
EXPONENTS  0.3258000D+00 0.1027000D+00 0.2526000D-01 0.1407000D+01 0.1407000D+01
EXPONENTS  0.1407000D+01 0.3880000D+00 0.3880000D+00 0.3880000D+00 0.1020000D+00
EXPONENTS  0.1020000D+00 0.1020000D+00 0.1057000D+01 0.1057000D+01 0.1057000D+01
EXPONENTS  0.1057000D+01 0.1057000D+01 0.1057000D+01 0.2470000D+00 0.2470000D+00
EXPONENTS  0.2470000D+00 0.2470000D+00 0.2470000D+00 0.2470000D+00 0.3387000D+02
EXPONENTS  0.5095000D+01 0.1159000D+01 0.3258000D+00 0.1027000D+00 0.2526000D-01
EXPONENTS  0.1407000D+01 0.1407000D+01 0.1407000D+01 0.3880000D+00 0.3880000D+00
EXPONENTS  0.3880000D+00 0.1020000D+00 0.1020000D+00 0.1020000D+00 0.1057000D+01
EXPONENTS  0.1057000D+01 0.1057000D+01 0.1057000D+01 0.1057000D+01 0.1057000D+01
EXPONENTS  0.2470000D+00 0.2470000D+00 0.2470000D+00 0.2470000D+00 0.2470000D+00
EXPONENTS  0.2470000D+00
MO    1     MO 0.0        OCC NO =    2.0000000  ORB. ENERGY =    0.000000
  0.42001779D-01  0.78284410D-01  0.13274222D+00  0.20089123D+00  0.25059598D+00
  0.21504863D+00  0.82352201D-01 -0.40175697D-03 -0.43105886D-02 -0.15889641D-01
 -0.46460379D-01 -0.55987016D-01  0.67442293D-01  0.46587352D-01 -0.30566071D-01
 -0.70611108D-02  0.96117063D-01  0.93201219D-01  0.62872992D-01  0.37565350D-01
  0.36425754D-01  0.24572598D-01 -0.14779350D+01 -0.14330998D+01 -0.96676068D+00
  0.20475871D-01  0.75580649D-02 -0.32051193D+00  0.19533420D-02  0.59798536D-03
 -0.37366209D-01  0.24399166D-04  0.43621211D-05 -0.77988562D-03 -0.45956736D-01
  0.94874971D-02  0.36469239D-01  0.32049881D-03 -0.13777970D-01 -0.34292852D-02
 -0.60164199D-02 -0.49810241D-02  0.10997444D-01  0.32333500D-04 -0.27797562D-02
 -0.34593577D-03  0.96752886D-03 -0.15892390D-02  0.62171014D-03 -0.50315347D-05
  0.91222977D-04  0.53856508D-04 -0.14603969D-02  0.18881170D-03  0.21927694D-03
  0.11719674D-02 -0.33631974D-03  0.18066521D-01  0.32092234D-02 -0.23011535D-03
 -0.18724352D-01 -0.20047176D-04  0.22929357D-04  0.43621971D-05 -0.70570165D-03
 -0.22064300D-03 -0.12444821D-04 -0.20071478D-03  0.15185493D-03 -0.64176992D-06
  0.23178197D-02 -0.22271504D-05  0.30658677D-01  0.55294187D-01  0.81531247D-01
  0.55431910D-01  0.69149773D-02  0.77156890D-04 -0.87514018D-03  0.32131596D-01
  0.27265259D-02 -0.23606103D-03  0.12002869D-01 -0.10894366D-02  0.59681253D-04
  0.94649526D-05 -0.11885916D-02 -0.39601593D-02  0.79036416D-02 -0.39434823D-02
 -0.10433648D-02 -0.22123770D-03  0.78291642D-02 -0.11079392D-04  0.16276992D-03
 -0.15169053D-03  0.45315853D-04  0.60465655D-05 -0.84907252D-03  0.32649726D-01
  0.58885125D-01  0.86826083D-01  0.59224042D-01  0.73570921D-02  0.72698504D-04
 -0.10153842D-02 -0.33493379D-01  0.42271051D-02 -0.29007297D-03 -0.12492978D-01
 -0.51157032D-03  0.58736800D-04 -0.27341810D-05 -0.11784683D-02 -0.43667029D-02
  0.82026393D-02 -0.38359364D-02  0.11561479D-02 -0.31818168D-03 -0.90358189D-02
 -0.78825465D-05  0.15386231D-03 -0.14597977D-03 -0.43160751D-04  0.55710726D-05
  0.82597946D-03
MO    2     MO 0.0        OCC NO =    2.0000000  ORB. ENERGY =    0.000000
 -0.26832853D-01 -0.50012027D-01 -0.84802419D-01 -0.12833944D+00 -0.16009334D+00
 -0.13738390D+00 -0.52610737D-01 -0.17923112D-04 -0.19230323D-03 -0.70886591D-03
 -0.20726823D-02 -0.24976830D-02  0.30087239D-02 -0.12915425D-02 -0.13536773D-02
 -0.29932995D-03  0.16410877D+01  0.15913030D+01  0.10734836D+01 -0.57604974D+00
 -0.55857448D+00 -0.37681104D+00  0.94913583D-01  0.92034248D-01  0.62085760D-01
  0.37023783D+00 -0.11589993D+00  0.21924863D-01  0.60049060D-01 -0.91698683D-02
  0.41497856D-02  0.18905609D-02 -0.66891396D-04  0.14659414D-03  0.46773166D-02
  0.18453248D-03 -0.48618491D-02 -0.49147221D-02 -0.67495304D-01  0.52586729D-01
  0.13002772D-02 -0.19511020D-03 -0.11051670D-02 -0.49582140D-03 -0.16376200D-01
  0.53047878D-02  0.13072267D-03 -0.61487416D-04 -0.69235257D-04  0.77156588D-04
 -0.98080259D-03 -0.82586818D-03 -0.98073707D-02 -0.28953525D-02  0.62142873D-03
  0.22566517D-01  0.51573298D-02 -0.34554218D-02  0.68555952D-02  0.35287276D-02
  0.15911356D-02  0.30741549D-03 -0.18394853D-03 -0.66892561D-04  0.20622751D-04
  0.14863161D-03  0.19083640D-03 -0.12125504D-03  0.40321398D-03  0.98412875D-05
  0.59386788D-04  0.34152468D-04  0.16512256D-01  0.29780533D-01  0.43911379D-01
  0.31427750D-01  0.36961484D-02 -0.30934514D-04  0.23057374D-01  0.11800265D-01
  0.13932509D-01  0.12746345D-01  0.43073044D-02  0.56696302D-02  0.19970482D-02
 -0.47238902D-04  0.22123398D-03 -0.41382114D-02  0.26897929D-02  0.14484185D-02
  0.11224589D-01  0.75133859D-02  0.10916300D-01 -0.50294008D-04 -0.61335283D-04
  0.11162929D-03  0.13102077D-02  0.77234133D-03  0.27178657D-03 -0.14019684D-01
 -0.25285078D-01 -0.37282832D-01 -0.26723082D-01 -0.30835062D-02  0.37433069D-04
  0.25207960D-01  0.90821415D-02 -0.90782775D-02  0.13574596D-01  0.32083122D-02
 -0.31917196D-02  0.20115310D-02 -0.55974808D-04  0.65996770D-04  0.20959732D-02
 -0.18952174D-02 -0.20075584D-03 -0.12954073D-01  0.89999834D-02  0.75872715D-02
 -0.99316362D-04  0.75259372D-04  0.24056990D-04 -0.13432553D-02  0.77963283D-03
  0.82336270D-04
MO    3     MO 0.0        OCC NO =    2.0000000  ORB. ENERGY =    0.000000
  0.13274861D+00  0.24742158D+00  0.41953806D+00  0.63492624D+00  0.79202044D+00
  0.67967137D+00  0.26027803D+00 -0.10466966D-03 -0.11230368D-02 -0.41397251D-02
 -0.12104313D-01 -0.14586286D-01  0.17570727D-01  0.26364207D-01  0.10547844D-01
  0.12046052D-02  0.67875100D+00  0.65816015D+00  0.44399095D+00  0.12895668D+01
  0.12504460D+01  0.84354346D+00  0.19580544D+00  0.18986541D+00  0.12808208D+00
  0.15327353D+00  0.25945796D+00  0.42852676D-01  0.24965234D-01  0.20528014D-01
  0.60698974D-02  0.79050496D-03  0.14974561D-03  0.14959044D-03  0.38479276D-02
  0.23813182D-02 -0.62292458D-02  0.11002283D-01 -0.27374296D-01 -0.11772264D+00
  0.73097875D-03  0.84627987D-03 -0.15772586D-02  0.11099646D-02 -0.66747466D-02
 -0.11875499D-01 -0.32521680D-04  0.11943161D-03 -0.86909934D-04 -0.17272566D-03
 -0.42003403D-03  0.18488198D-02 -0.40538493D-02  0.64816456D-02  0.67956090D-03
  0.95633104D-02 -0.11545394D-01 -0.23923536D-02  0.25982376D-02 -0.78995432D-02
  0.35367095D-03 -0.68819196D-03 -0.70762856D-04  0.14974822D-03 -0.12093149D-04
  0.50102589D-04 -0.42721358D-03 -0.12466253D-03  0.16218598D-03 -0.22031079D-04
  0.16094198D-03 -0.76455007D-04 -0.35144483D-01 -0.63384522D-01 -0.93460440D-01
 -0.69299748D-01 -0.86377624D-02  0.60095930D-04  0.12502280D-01 -0.24619265D-01
 -0.23659513D-01  0.64747266D-02 -0.97257884D-02 -0.92648016D-02  0.85347634D-03
  0.49633143D-04 -0.11630964D-04  0.71857457D-02 -0.61055186D-02 -0.10802271D-02
  0.71558258D-02  0.51779575D-02 -0.21213610D-01 -0.64648218D-04  0.11637785D-03
 -0.51729635D-04  0.59341203D-03  0.33678392D-03 -0.31268882D-03  0.33205473D-01
  0.59887439D-01  0.88303993D-01  0.60878905D-01  0.65394289D-02 -0.92954329D-04
  0.76878980D-02 -0.22128879D-01  0.27853304D-01  0.46205710D-02 -0.70989553D-02
  0.10572552D-01  0.82105457D-03  0.18142497D-03  0.33588893D-03 -0.67703361D-02
  0.41586590D-02  0.26116771D-02 -0.32841373D-02  0.18500042D-02 -0.20209185D-01
  0.45095080D-04 -0.18940811D-03  0.14431303D-03 -0.51943035D-03  0.32046091D-03
 -0.48006396D-03
MO    4     MO 0.0        OCC NO =    2.0000000  ORB. ENERGY =    0.000000
  0.44751606D+00  0.83409636D+00  0.14143276D+01  0.21404344D+01  0.26700232D+01
  0.22912772D+01  0.87743743D+00  0.10899255D-02  0.11694185D-01  0.43106969D-01
  0.12604225D+00  0.15188704D+00 -0.18296403D+00 -0.59915230D-01 -0.55764806D-01
 -0.43885237D-02 -0.30652170D-01 -0.29722294D-01 -0.20050484D-01 -0.27066184D+00
 -0.26245094D+00 -0.17704785D+00 -0.25026936D+00 -0.24267709D+00 -0.16370853D+00
 -0.72453207D-02 -0.54456560D-01 -0.52948032D-01 -0.10532944D-02 -0.43085401D-02
 -0.99098705D-02 -0.43218585D-04 -0.31429488D-04 -0.20492264D-03  0.50353434D-02
 -0.12785597D-01  0.77502533D-02 -0.23092237D-02  0.17591559D-02  0.24708319D-01
  0.21831203D-02 -0.38915811D-02  0.17084609D-02 -0.23296588D-03  0.64064981D-03
  0.24924994D-02  0.64255392D-04 -0.15025837D-03  0.86002982D-04  0.36252675D-04
  0.29242236D-04 -0.38804115D-03  0.26423528D-03 -0.13604058D-02 -0.87741986D-03
 -0.92479804D-03  0.24232150D-02  0.69751263D-03  0.13209220D-03  0.16580025D-02
  0.19347470D-02  0.14444177D-03  0.21393682D-04 -0.31430035D-04  0.33115037D-04
 -0.10436231D-04  0.89666093D-04 -0.15711455D-03 -0.53744814D-04  0.46240121D-05
  0.57769440D-04  0.16046826D-04 -0.14413478D-02 -0.25995301D-02 -0.38330056D-02
  0.11619673D-01  0.45573659D-02  0.53015885D-04 -0.18762210D-03 -0.56567361D-02
 -0.65293318D-02 -0.37952340D-03  0.20395929D-02 -0.59272684D-03 -0.50378007D-04
  0.24146095D-03 -0.16812595D-03  0.54874144D-03  0.22162810D-03 -0.77036954D-03
 -0.15091180D-03 -0.31856432D-04 -0.26773009D-02 -0.66779895D-04  0.11647866D-03
 -0.49698763D-04 -0.48771962D-04 -0.29533382D-04  0.53768123D-04 -0.15787038D-01
 -0.28472573D-01 -0.41982792D-01 -0.15702987D-01  0.13718879D-02  0.85138972D-04
  0.82284871D-03  0.15468511D-01 -0.17341144D-01  0.96376581D-05  0.14916831D-02
 -0.47563070D-02 -0.43573134D-04 -0.28995678D-03 -0.24106547D-03  0.34779258D-02
 -0.19326777D-02 -0.15452481D-02 -0.66170091D-03  0.66663394D-03  0.11371360D-01
 -0.89813463D-04  0.18065881D-03 -0.90845349D-04  0.33244252D-04 -0.26107411D-04
  0.11261948D-03
MO    5     MO 0.0        OCC NO =    2.0000000  ORB. ENERGY =    0.000000
  0.19714664D+00  0.36744893D+00  0.62306129D+00  0.94293701D+00  0.11762396D+01
  0.10093886D+01  0.38654220D+00 -0.12773787D-02 -0.13705435D-01 -0.50520814D-01
 -0.14771990D+00 -0.17800966D+00  0.21443150D+00  0.15487078D+00  0.83230998D-01
  0.77815560D-02 -0.17084623D+00 -0.16566338D+00 -0.11175553D+00 -0.34034332D+00
 -0.33001853D+00 -0.22262855D+00  0.61716638D+00  0.59844379D+00  0.40370664D+00
 -0.37869820D-01 -0.68476318D-01  0.13199155D+00 -0.59893807D-02 -0.54177672D-02
  0.19731852D-01 -0.16757790D-03 -0.39520961D-04  0.39556939D-03 -0.24136327D-02
  0.19925595D-01 -0.17511963D-01 -0.29037298D-02  0.75980902D-02  0.31069437D-01
 -0.18313118D-02  0.60818476D-02 -0.42505357D-02 -0.29294258D-03  0.16105875D-02
  0.31341895D-02 -0.28878946D-03  0.50068190D-03 -0.21189244D-03  0.45585871D-04
  0.55359464D-04 -0.48794174D-03  0.86808022D-03 -0.17106402D-02  0.22450465D-02
 -0.10947068D-02  0.30470680D-02 -0.17767934D-02 -0.15095339D-02  0.20848527D-02
 -0.49583461D-02  0.18162808D-03  0.28738550D-04 -0.39521649D-04 -0.18495313D-03
 -0.77781487D-04  0.11275049D-03 -0.16432443D-03 -0.84341637D-05  0.58144569D-05
  0.71918381D-03  0.20178056D-04  0.13580968D-01  0.24493835D-01  0.36116145D-01
  0.51948221D-02 -0.40610030D-02 -0.13461113D-03 -0.35876215D-02  0.11172276D-01
  0.20510181D-01 -0.13813138D-02 -0.25524145D-02  0.50368715D-02 -0.18034206D-03
 -0.49819900D-03  0.44916654D-03 -0.13870162D-02 -0.14370796D-02  0.28240958D-02
 -0.15186555D-02 -0.13816912D-02  0.72629059D-02  0.16526991D-03 -0.29116855D-03
  0.12589865D-03 -0.10954399D-03 -0.47633035D-04  0.19233735D-03 -0.44579981D-02
 -0.80401831D-02 -0.11855245D-01 -0.29162015D-01 -0.80665774D-02 -0.94218006D-04
 -0.23170065D-02  0.11655258D-02  0.69148845D-02 -0.89196384D-03  0.69928120D-02
 -0.19861590D-03 -0.17178529D-03  0.43721798D-03  0.35744886D-03  0.22962822D-02
 -0.41460081D-02  0.18497260D-02  0.49683689D-03 -0.50337553D-03  0.36694256D-02
  0.13630638D-03 -0.21046532D-03  0.74158938D-04  0.90018696D-04 -0.43325053D-04
  0.16886489D-04
END DATA
 TOTAL ENERGY =    -76.464340857731 THE VIRIAL(-V/T)=   2.00457188
