 21
GAUSSIAN              5 MOL ORBITALS    126 PRIMITIVES        3 NUCLEI   B3LYP   B3LYP   B3LYP
  O    1    (CENTRE  1)   0.00000000 -0.09448631 -0.08633025  CHARGE =  8.0
  H    2    (CENTRE  2)   0.00000000 -1.44255835 -1.09730160  CHARGE =  1.0
  H    3    (CENTRE  3)   0.00000000  1.44255835 -1.09730160  CHARGE =  1.0
CENTRE ASSIGNMENTS    1  1  1  1  1  1  1  1  1  1  1  1  1  1  1  1  1  1  1  1
CENTRE ASSIGNMENTS    1  1  1  1  1  1  1  1  1  1  1  1  1  1  1  1  1  1  1  1
CENTRE ASSIGNMENTS    1  1  1  1  1  1  1  1  1  1  1  1  1  1  1  1  1  1  1  1
CENTRE ASSIGNMENTS    1  1  1  1  1  1  1  1  1  1  1  1  2  2  2  2  2  2  2  2
CENTRE ASSIGNMENTS    2  2  2  2  2  2  2  2  2  2  2  2  2  2  2  2  2  2  2  3
CENTRE ASSIGNMENTS    3  3  3  3  3  3  3  3  3  3  3  3  3  3  3  3  3  3  3  3
CENTRE ASSIGNMENTS    3  3  3  3  3  3
TYPE ASSIGNMENTS      1  1  1  1  1  1  1  1  1  1  1  1  1  1  1  1  2  2  2  3
TYPE ASSIGNMENTS      3  3  4  4  4  2  3  4  2  3  4  2  3  4  5  6  7  8  9 10
TYPE ASSIGNMENTS      5  6  7  8  9 10  5  6  7  8  9 10 11 12 13 17 14 15 18 19
TYPE ASSIGNMENTS     16 20 11 12 13 17 14 15 18 19 16 20  1  1  1  1  1  1  2  3
TYPE ASSIGNMENTS      4  2  3  4  2  3  4  5  6  7  8  9 10  5  6  7  8  9 10  1
TYPE ASSIGNMENTS      1  1  1  1  1  2  3  4  2  3  4  2  3  4  5  6  7  8  9 10
TYPE ASSIGNMENTS      5  6  7  8  9 10
EXPONENTS  0.1533000D+05 0.2299000D+04 0.5224000D+03 0.1473000D+03 0.4755000D+02
EXPONENTS  0.1676000D+02 0.6207000D+01 0.5224000D+03 0.1473000D+03 0.4755000D+02
EXPONENTS  0.1676000D+02 0.6207000D+01 0.6882000D+00 0.1752000D+01 0.2384000D+00
EXPONENTS  0.7376000D-01 0.3446000D+02 0.7749000D+01 0.2280000D+01 0.3446000D+02
EXPONENTS  0.7749000D+01 0.2280000D+01 0.3446000D+02 0.7749000D+01 0.2280000D+01
EXPONENTS  0.7156000D+00 0.7156000D+00 0.7156000D+00 0.2140000D+00 0.2140000D+00
EXPONENTS  0.2140000D+00 0.5974000D-01 0.5974000D-01 0.5974000D-01 0.2314000D+01
EXPONENTS  0.2314000D+01 0.2314000D+01 0.2314000D+01 0.2314000D+01 0.2314000D+01
EXPONENTS  0.6450000D+00 0.6450000D+00 0.6450000D+00 0.6450000D+00 0.6450000D+00
EXPONENTS  0.6450000D+00 0.2140000D+00 0.2140000D+00 0.2140000D+00 0.2140000D+00
EXPONENTS  0.2140000D+00 0.2140000D+00 0.1428000D+01 0.1428000D+01 0.1428000D+01
EXPONENTS  0.1428000D+01 0.1428000D+01 0.1428000D+01 0.1428000D+01 0.1428000D+01
EXPONENTS  0.1428000D+01 0.1428000D+01 0.5000000D+00 0.5000000D+00 0.5000000D+00
EXPONENTS  0.5000000D+00 0.5000000D+00 0.5000000D+00 0.5000000D+00 0.5000000D+00
EXPONENTS  0.5000000D+00 0.5000000D+00 0.3387000D+02 0.5095000D+01 0.1159000D+01
EXPONENTS  0.3258000D+00 0.1027000D+00 0.2526000D-01 0.1407000D+01 0.1407000D+01
EXPONENTS  0.1407000D+01 0.3880000D+00 0.3880000D+00 0.3880000D+00 0.1020000D+00
EXPONENTS  0.1020000D+00 0.1020000D+00 0.1057000D+01 0.1057000D+01 0.1057000D+01
EXPONENTS  0.1057000D+01 0.1057000D+01 0.1057000D+01 0.2470000D+00 0.2470000D+00
EXPONENTS  0.2470000D+00 0.2470000D+00 0.2470000D+00 0.2470000D+00 0.3387000D+02
EXPONENTS  0.5095000D+01 0.1159000D+01 0.3258000D+00 0.1027000D+00 0.2526000D-01
EXPONENTS  0.1407000D+01 0.1407000D+01 0.1407000D+01 0.3880000D+00 0.3880000D+00
EXPONENTS  0.3880000D+00 0.1020000D+00 0.1020000D+00 0.1020000D+00 0.1057000D+01
EXPONENTS  0.1057000D+01 0.1057000D+01 0.1057000D+01 0.1057000D+01 0.1057000D+01
EXPONENTS  0.2470000D+00 0.2470000D+00 0.2470000D+00 0.2470000D+00 0.2470000D+00
EXPONENTS  0.2470000D+00
MO    1     MO 0.0        OCC NO =    2.0000000  ORB. ENERGY =    0.000000
 -0.25513599D+00 -0.47553153D+00 -0.80633054D+00 -0.12202955D+01 -0.15222225D+01
 -0.13062934D+01 -0.50024096D+00 -0.21683715D-03 -0.23265203D-02 -0.85759918D-02
 -0.25075697D-01 -0.30217434D-01  0.36400101D-01 -0.73874469D-02  0.52221805D-01
  0.80537703D-02  0.42256684D-01  0.40974769D-01  0.27641337D-01 -0.37577188D+00
 -0.36437232D+00 -0.24580341D+00  0.13565578D+01  0.13154048D+01  0.88736429D+00
  0.95267538D-02 -0.79629298D-01  0.29456668D+00  0.15444559D-02 -0.85394765D-02
  0.36741146D-01  0.48611382D-04 -0.83615459D-04  0.76139030D-03  0.36070779D-01
 -0.13524331D-02 -0.34718346D-01 -0.12317595D-03 -0.17611262D-02  0.26662903D-01
  0.42310922D-02  0.56590537D-02 -0.98901460D-02  0.35853403D-04 -0.41949542D-03
  0.60532758D-02 -0.76177665D-03  0.13167906D-02 -0.55501398D-03  0.82771908D-05
 -0.25240853D-04  0.35695964D-03 -0.25415299D-03 -0.24968111D-02  0.36561206D-03
  0.57816932D-03  0.40461581D-02 -0.15890135D-01  0.18428966D-03  0.34442751D-02
  0.14793298D-01  0.38490423D-04 -0.44738126D-05  0.24229858D-03  0.49830554D-03
  0.39183044D-05  0.35421111D-03  0.17395919D-03  0.95031335D-05 -0.10811068D-02
 -0.16688758D-02 -0.29591307D-04 -0.13383768D-01 -0.24138176D-01 -0.35591727D-01
 -0.30670294D-01 -0.49064112D-02 -0.10091097D-03  0.69089127D-03 -0.18425630D-01
  0.10531461D-01  0.37520114D-03 -0.84093563D-02  0.55145565D-02  0.55196747D-04
 -0.11092063D-03  0.12668250D-02  0.57383776D-03 -0.55723613D-02  0.49985236D-02
  0.33833930D-03  0.24906523D-03  0.15766406D-02 -0.41563772D-04 -0.25090747D-03
  0.29247124D-03  0.37071214D-04  0.24494408D-04  0.10383778D-02 -0.30479663D-01
 -0.54971328D-01 -0.81055191D-01 -0.61596112D-01 -0.10273953D-01 -0.92738168D-04
  0.56713343D-03  0.25021008D-01 -0.20572716D-02  0.31018993D-03  0.12317744D-01
 -0.76620220D-03  0.48568799D-04  0.24189607D-03  0.92001903D-03  0.40937375D-02
 -0.72836904D-02  0.31899529D-02 -0.29340670D-03  0.18925246D-03  0.75913739D-02
  0.19066946D-03 -0.26042154D-03  0.69752076D-04 -0.31357153D-04  0.16472390D-04
 -0.23190631D-03
MO    2     MO 0.0        OCC NO =    2.0000000  ORB. ENERGY =    0.000000
  0.42959876D+00  0.80070146D+00  0.13577018D+01  0.20547374D+01  0.25631229D+01
  0.21995408D+01  0.84230726D+00  0.13388969D-03  0.14365485D-02  0.52953884D-02
  0.15483405D-01  0.18658256D-01 -0.22475847D-01  0.36440204D-01  0.25760127D-01
  0.46938891D-02  0.11120805D+00  0.10783440D+00  0.72744448D-01  0.52380327D-01
  0.50791297D-01  0.34263509D-01  0.82151518D+00  0.79659339D+00  0.53737719D+00
  0.25071813D-01  0.49534891D-02  0.17723530D+00  0.40645858D-02 -0.18702262D-02
  0.20514145D-01  0.12793188D-03 -0.49871965D-04  0.42037043D-03  0.21215300D-01
 -0.63820849D-04 -0.21151479D-01 -0.32416544D-03 -0.46348030D-02 -0.64323447D-02
  0.29377475D-02  0.29735557D-02 -0.59113032D-02  0.94356360D-04 -0.11039973D-02
  0.25549084D-02 -0.54783025D-03  0.84413529D-03 -0.29630504D-03  0.21783305D-04
 -0.66427028D-04  0.85162506D-03 -0.66886123D-03 -0.14775605D-03  0.74865589D-03
  0.15215837D-02  0.11926759D-02 -0.83894262D-02  0.48500003D-03 -0.74940774D-03
  0.61434585D-02  0.10129628D-03 -0.11773852D-04  0.16534723D-03  0.18887359D-03
  0.10311907D-04  0.14544695D-03 -0.11792159D-03  0.25009651D-04 -0.64148865D-03
 -0.44869917D-03 -0.77876235D-04 -0.18671588D-01 -0.33674978D-01 -0.49653736D-01
 -0.39240123D-01 -0.51463370D-02 -0.57381093D-04  0.18182371D-02 -0.22517892D-01
 -0.46240697D-02  0.98742688D-03 -0.92493847D-02 -0.90438052D-03  0.14526276D-03
 -0.12174240D-03  0.62953892D-03  0.44633422D-02 -0.66267025D-02  0.21633604D-02
  0.89041659D-03  0.65547163D-03 -0.10911248D-01 -0.47170936D-04 -0.98697320D-04
  0.14586826D-03  0.97561306D-04  0.64462589D-04  0.54152037D-03 -0.13697490D-01
 -0.24703988D-01 -0.36426015D-01 -0.25840944D-01 -0.40705008D-02 -0.49903389D-04
  0.14925402D-02  0.13438063D-01  0.14921190D-02  0.81633514D-03  0.61768993D-02
  0.95488112D-03  0.12781981D-03  0.73994301D-04  0.59122191D-03  0.22622881D-02
 -0.44531295D-02  0.21908414D-02 -0.77216627D-03  0.49806077D-03  0.37317209D-02
  0.94644152D-04 -0.12165638D-03  0.27012229D-04 -0.82523459D-04  0.43350829D-04
 -0.29452459D-03
MO    3     MO 0.0        OCC NO =    2.0000000  ORB. ENERGY =    0.000000
 -0.58793925D-01 -0.10958221D+00 -0.18581203D+00 -0.28120675D+00 -0.35078326D+00
 -0.30102423D+00 -0.11527629D+00  0.50759847D-04  0.54461985D-03  0.20075713D-02
  0.58700208D-02  0.70736604D-02 -0.85209736D-02 -0.13396010D-01  0.14313051D-01
  0.18891704D-02 -0.83683704D+00 -0.81145043D+00 -0.54739967D+00  0.12564047D+01
  0.12182900D+01  0.82185120D+00  0.34302331D+00  0.33261723D+00  0.22438162D+00
 -0.18866460D+00  0.25173886D+00  0.68875620D-01 -0.30585880D-01  0.19319448D-01
  0.54762189D-02 -0.96268331D-03  0.13774092D-03  0.11078514D-03  0.10674905D-01
 -0.12292219D-02 -0.94456835D-02  0.24393347D-02  0.34876746D-01 -0.11743943D+00
  0.18061133D-03  0.23914855D-02 -0.25720969D-02 -0.71002863D-03  0.83075450D-02
 -0.10886595D-01 -0.54096433D-03  0.58188186D-03 -0.40917532D-04 -0.16391868D-03
  0.49986128D-03  0.20595205D-02  0.50331596D-02  0.61811102D-02 -0.16497048D-03
 -0.11449869D-01 -0.11518740D-01 -0.37374003D-02 -0.36496099D-02 -0.70245906D-02
  0.42323118D-02 -0.76225128D-03  0.88597868D-04  0.22682317D-03  0.36405318D-03
 -0.77596771D-04 -0.28527032D-03  0.45375581D-03 -0.18819683D-03 -0.39519919D-03
 -0.15459153D-02  0.58601620D-03 -0.41062921D-01 -0.74058668D-01 -0.10919946D+00
 -0.78790476D-01 -0.82231149D-02  0.65432114D-04 -0.13682176D-01 -0.32034457D-01
 -0.30530599D-01 -0.74303561D-02 -0.99767110D-02 -0.98168724D-02 -0.10930976D-02
  0.33104024D-03  0.20782492D-03  0.78387475D-02 -0.59268366D-02 -0.19119110D-02
 -0.67003567D-02 -0.49324033D-02 -0.23090835D-01 -0.23869474D-03  0.29712347D-03
 -0.58428730D-04 -0.73414574D-03 -0.48507894D-03  0.32937876D-03  0.26632463D-01
  0.48032743D-01  0.70824252D-01  0.49515407D-01  0.60327185D-02 -0.10191085D-03
 -0.11231318D-01 -0.15361884D-01  0.21211211D-01 -0.61428961D-02 -0.58169963D-02
  0.89831481D-02 -0.96184002D-03  0.30465840D-04  0.43067770D-03 -0.57974955D-02
  0.39779876D-02  0.18195079D-02  0.58105267D-02 -0.37478915D-02 -0.17361616D-01
 -0.26004609D-04 -0.60641700D-04  0.86646309D-04  0.62098642D-03 -0.32621362D-03
 -0.79876535D-03
MO    4     MO 0.0        OCC NO =    2.0000000  ORB. ENERGY =    0.000000
 -0.68341003D-01 -0.12737639D+00 -0.21598457D+00 -0.32686969D+00 -0.40774417D+00
 -0.34990516D+00 -0.13399509D+00 -0.45832375D-03 -0.49175131D-02 -0.18126879D-01
 -0.53001931D-01 -0.63869905D-01  0.76938069D-01  0.38604193D-01  0.28559801D-01
  0.22313287D-02  0.15124870D+01  0.14666036D+01  0.98936212D+00  0.67289393D+00
  0.65248077D+00  0.44015967D+00  0.13803580D+00  0.13384829D+00  0.90293265D-01
  0.34098963D+00  0.13665901D+00  0.26633144D-01  0.55280470D-01  0.11076142D-01
  0.32931640D-02  0.17399397D-02  0.84614730D-04  0.64333273D-04 -0.20025451D-02
  0.65623626D-02 -0.45598175D-02 -0.44088177D-02 -0.63035718D-01 -0.61507816D-01
 -0.14345736D-02  0.24189869D-02 -0.98441334D-03  0.12832953D-02 -0.15014935D-01
 -0.69622599D-02 -0.21216901D-03  0.21048472D-03  0.16842907D-05  0.29626421D-03
 -0.90344194D-03  0.91187240D-03 -0.90968588D-02  0.35377148D-02  0.51902397D-03
  0.20694325D-01 -0.66557516D-02  0.69743868D-04  0.65962513D-02 -0.39573929D-02
 -0.16268158D-02  0.13776818D-02 -0.16013048D-03  0.84623510D-04  0.57918004D-04
  0.14024726D-03 -0.28192078D-03  0.19873672D-03  0.34014419D-03  0.28050250D-04
 -0.37249073D-03 -0.10591571D-02 -0.14655511D-01 -0.26431818D-01 -0.38973700D-01
 -0.35251041D-01 -0.50323708D-02  0.14088931D-04  0.24728965D-01 -0.87267395D-02
 -0.10132312D-01  0.13429516D-01 -0.43875353D-02 -0.43868792D-02  0.19756486D-02
  0.51691748D-04  0.50037764D-04  0.31159690D-02 -0.22466242D-02 -0.86934474D-03
  0.12110126D-01  0.89147533D-02 -0.88771675D-02 -0.68096348D-04  0.11020241D-03
 -0.42106060D-04  0.13268842D-02  0.87672455D-03  0.25052308D-04  0.20582599D-01
  0.37121564D-01  0.54735725D-01  0.32014434D-01  0.25805359D-02 -0.79128950D-04
  0.20299319D-01 -0.14699953D-01  0.15710637D-01  0.11102580D-01 -0.36973847D-02
  0.55757840D-02  0.17384155D-02  0.15704671D-03  0.18504871D-03 -0.37530300D-02
  0.26699011D-02  0.10831289D-02 -0.10501861D-01  0.67738841D-02 -0.11391325D-01
  0.11777746D-04 -0.85648195D-04  0.73870448D-04 -0.11223617D-02  0.58959370D-03
 -0.37723943D-03
MO    5     MO 0.0        OCC NO =    2.0000000  ORB. ENERGY =    0.000000
 -0.38714096D-01 -0.72156710D-01 -0.12235184D+00 -0.18516650D+00 -0.23098062D+00
 -0.19821573D+00 -0.75906095D-01 -0.16458490D-02 -0.17658879D-01 -0.65093954D-01
 -0.19033090D+00 -0.22935799D+00  0.27628601D+00  0.16535810D+00  0.81823710D-01
  0.59890833D-02 -0.44351557D+00 -0.43006091D+00 -0.29011655D+00 -0.98568043D-01
 -0.95577845D-01 -0.64476250D-01  0.15874406D+00  0.15392834D+00  0.10383915D+00
 -0.99990420D-01 -0.15294689D-01  0.33374289D-01 -0.16210222D-01  0.37105252D-04
  0.95420820D-02 -0.51021288D-03  0.81902362D-05  0.18830575D-03 -0.18214549D-01
  0.24553590D-01 -0.63390416D-02  0.12928239D-02  0.18484339D-01  0.12759986D-01
 -0.40932566D-02  0.50217375D-02 -0.92848084D-03 -0.37630833D-03  0.44029188D-02
 -0.19843805D-02  0.87218677D-04 -0.42990733D-04 -0.44227944D-04 -0.86875320D-04
  0.26492166D-03 -0.52872195D-03  0.26675261D-02  0.12677574D-03  0.23038121D-02
 -0.60683202D-02 -0.27917163D-03  0.36721273D-02 -0.19342581D-02 -0.10115560D-03
 -0.10583563D-01 -0.40398583D-03  0.46956016D-04 -0.74846070D-04 -0.39455651D-03
 -0.41125541D-04 -0.35293931D-03 -0.19141574D-03 -0.99742507D-04  0.57747752D-03
  0.13750853D-02  0.31058294D-03  0.21543141D-01  0.38853942D-01  0.57290115D-01
  0.15688754D-01 -0.34037833D-02 -0.99414986D-04 -0.72514216D-02  0.23281627D-01
  0.22896462D-01 -0.39380171D-02  0.74142562D-03  0.38611434D-02 -0.57933122D-03
 -0.48942929D-03  0.57061109D-04 -0.29903883D-02  0.13289146D-02  0.16614737D-02
 -0.35511245D-02 -0.26141262D-02  0.10709592D-01  0.20236410D-03 -0.23345894D-03
  0.31094844D-04 -0.38909017D-03 -0.25708716D-03 -0.30133155D-03  0.13601869D-01
  0.24531530D-01  0.36171727D-01  0.34012767D-02 -0.45820058D-02 -0.98907911D-04
 -0.59524903D-02 -0.15391495D-01  0.13733020D-01 -0.32556757D-02  0.10891606D-02
  0.22314501D-02 -0.50976594D-03  0.51968108D-03  0.54343743D-04 -0.90251089D-03
 -0.21136823D-03  0.11138791D-02  0.30795232D-02 -0.19863464D-02 -0.44296170D-02
  0.13112856D-03 -0.23297554D-03  0.10184697D-03  0.32911682D-03 -0.17289007D-03
  0.12471628D-03
END DATA
 TOTAL ENERGY =    -76.460276932790 THE VIRIAL(-V/T)=   2.00428878
