 31
GAUSSIAN              5 MOL ORBITALS    126 PRIMITIVES        3 NUCLEI   B3LYP   B3LYP   B3LYP
  O    1    (CENTRE  1)   0.00000000  0.09448631  0.00815606  CHARGE =  8.0
  H    2    (CENTRE  2)  -0.09448631 -1.44255835 -1.09730160  CHARGE =  1.0
  H    3    (CENTRE  3)   0.00000000  1.44255835 -1.09730160  CHARGE =  1.0
CENTRE ASSIGNMENTS    1  1  1  1  1  1  1  1  1  1  1  1  1  1  1  1  1  1  1  1
CENTRE ASSIGNMENTS    1  1  1  1  1  1  1  1  1  1  1  1  1  1  1  1  1  1  1  1
CENTRE ASSIGNMENTS    1  1  1  1  1  1  1  1  1  1  1  1  1  1  1  1  1  1  1  1
CENTRE ASSIGNMENTS    1  1  1  1  1  1  1  1  1  1  1  1  2  2  2  2  2  2  2  2
CENTRE ASSIGNMENTS    2  2  2  2  2  2  2  2  2  2  2  2  2  2  2  2  2  2  2  3
CENTRE ASSIGNMENTS    3  3  3  3  3  3  3  3  3  3  3  3  3  3  3  3  3  3  3  3
CENTRE ASSIGNMENTS    3  3  3  3  3  3
TYPE ASSIGNMENTS      1  1  1  1  1  1  1  1  1  1  1  1  1  1  1  1  2  2  2  3
TYPE ASSIGNMENTS      3  3  4  4  4  2  3  4  2  3  4  2  3  4  5  6  7  8  9 10
TYPE ASSIGNMENTS      5  6  7  8  9 10  5  6  7  8  9 10 11 12 13 17 14 15 18 19
TYPE ASSIGNMENTS     16 20 11 12 13 17 14 15 18 19 16 20  1  1  1  1  1  1  2  3
TYPE ASSIGNMENTS      4  2  3  4  2  3  4  5  6  7  8  9 10  5  6  7  8  9 10  1
TYPE ASSIGNMENTS      1  1  1  1  1  2  3  4  2  3  4  2  3  4  5  6  7  8  9 10
TYPE ASSIGNMENTS      5  6  7  8  9 10
EXPONENTS  0.1533000D+05 0.2299000D+04 0.5224000D+03 0.1473000D+03 0.4755000D+02
EXPONENTS  0.1676000D+02 0.6207000D+01 0.5224000D+03 0.1473000D+03 0.4755000D+02
EXPONENTS  0.1676000D+02 0.6207000D+01 0.6882000D+00 0.1752000D+01 0.2384000D+00
EXPONENTS  0.7376000D-01 0.3446000D+02 0.7749000D+01 0.2280000D+01 0.3446000D+02
EXPONENTS  0.7749000D+01 0.2280000D+01 0.3446000D+02 0.7749000D+01 0.2280000D+01
EXPONENTS  0.7156000D+00 0.7156000D+00 0.7156000D+00 0.2140000D+00 0.2140000D+00
EXPONENTS  0.2140000D+00 0.5974000D-01 0.5974000D-01 0.5974000D-01 0.2314000D+01
EXPONENTS  0.2314000D+01 0.2314000D+01 0.2314000D+01 0.2314000D+01 0.2314000D+01
EXPONENTS  0.6450000D+00 0.6450000D+00 0.6450000D+00 0.6450000D+00 0.6450000D+00
EXPONENTS  0.6450000D+00 0.2140000D+00 0.2140000D+00 0.2140000D+00 0.2140000D+00
EXPONENTS  0.2140000D+00 0.2140000D+00 0.1428000D+01 0.1428000D+01 0.1428000D+01
EXPONENTS  0.1428000D+01 0.1428000D+01 0.1428000D+01 0.1428000D+01 0.1428000D+01
EXPONENTS  0.1428000D+01 0.1428000D+01 0.5000000D+00 0.5000000D+00 0.5000000D+00
EXPONENTS  0.5000000D+00 0.5000000D+00 0.5000000D+00 0.5000000D+00 0.5000000D+00
EXPONENTS  0.5000000D+00 0.5000000D+00 0.3387000D+02 0.5095000D+01 0.1159000D+01
EXPONENTS  0.3258000D+00 0.1027000D+00 0.2526000D-01 0.1407000D+01 0.1407000D+01
EXPONENTS  0.1407000D+01 0.3880000D+00 0.3880000D+00 0.3880000D+00 0.1020000D+00
EXPONENTS  0.1020000D+00 0.1020000D+00 0.1057000D+01 0.1057000D+01 0.1057000D+01
EXPONENTS  0.1057000D+01 0.1057000D+01 0.1057000D+01 0.2470000D+00 0.2470000D+00
EXPONENTS  0.2470000D+00 0.2470000D+00 0.2470000D+00 0.2470000D+00 0.3387000D+02
EXPONENTS  0.5095000D+01 0.1159000D+01 0.3258000D+00 0.1027000D+00 0.2526000D-01
EXPONENTS  0.1407000D+01 0.1407000D+01 0.1407000D+01 0.3880000D+00 0.3880000D+00
EXPONENTS  0.3880000D+00 0.1020000D+00 0.1020000D+00 0.1020000D+00 0.1057000D+01
EXPONENTS  0.1057000D+01 0.1057000D+01 0.1057000D+01 0.1057000D+01 0.1057000D+01
EXPONENTS  0.2470000D+00 0.2470000D+00 0.2470000D+00 0.2470000D+00 0.2470000D+00
EXPONENTS  0.2470000D+00
MO    1     MO 0.0        OCC NO =    2.0000000  ORB. ENERGY =    0.000000
  0.20256858D-01  0.37755452D-01  0.64019674D-01  0.96886970D-01  0.12085886D+00
  0.10371488D+00  0.39717289D-01  0.68724519D-04  0.73736899D-03  0.27180809D-02
  0.79475092D-02  0.95771350D-02 -0.11536674D-01 -0.31470877D-02 -0.51645358D-02
  0.28007927D-03 -0.45992876D+00 -0.44597618D+00 -0.30085290D+00  0.14160066D+01
  0.13730501D+01  0.92625147D+00  0.13342997D+00  0.12938219D+00  0.87280460D-01
 -0.10444136D+00  0.29440611D+00  0.34934881D-01 -0.17769896D-01  0.28415417D-01
  0.69427209D-02 -0.59231879D-03  0.30137487D-03  0.14746444D-03  0.44371114D-02
 -0.16563752D-02 -0.27807362D-02 -0.69037763D-02  0.16224887D-01 -0.13069010D+00
  0.20917601D-02 -0.10114580D-02 -0.10803021D-02 -0.59410137D-03  0.45249060D-02
 -0.17876505D-01  0.29388946D-03 -0.12002292D-03 -0.17386654D-03  0.98865304D-04
  0.34524584D-03  0.84110321D-03  0.24357200D-02  0.68412018D-02  0.88194284D-04
 -0.45966127D-02 -0.15464159D-01 -0.30704555D-02 -0.27105474D-02 -0.50594468D-02
  0.28058726D-02  0.16835534D-02  0.60620326D-04  0.10285214D-03 -0.12487014D-03
 -0.66219291D-04 -0.86738041D-03 -0.45789753D-03 -0.11564169D-03  0.55882401D-03
  0.83250794D-03 -0.13249900D-03 -0.38700023D-01 -0.69797085D-01 -0.10291576D+00
 -0.68993457D-01 -0.91828684D-02  0.11161223D-03 -0.80442009D-02 -0.21091402D-01
 -0.22583233D-01 -0.41627776D-02 -0.80581020D-02 -0.93329976D-02 -0.55684092D-03
  0.16379827D-03 -0.91262538D-04  0.62672792D-02 -0.42398970D-02 -0.20273823D-02
 -0.47731026D-02 -0.35873031D-02 -0.18482371D-01  0.16671485D-03 -0.85512819D-05
 -0.15816356D-03 -0.38114478D-03 -0.23702762D-03 -0.82031457D-03  0.32946689D-01
  0.59420710D-01  0.87615803D-01  0.62721928D-01  0.66715129D-02 -0.12068672D-03
 -0.71516434D-02 -0.17261990D-01  0.30316758D-01 -0.39437810D-02 -0.53471504D-02
  0.11527521D-01 -0.60999302D-03  0.46431337D-03  0.25187535D-03 -0.66642982D-02
  0.17951228D-02  0.48691754D-02  0.34863335D-02 -0.27226596D-02 -0.20307722D-01
  0.79601551D-04 -0.33779607D-03  0.25819452D-03  0.36414669D-03 -0.27347687D-03
 -0.22777276D-03
MO    2     MO 0.0        OCC NO =    2.0000000  ORB. ENERGY =    0.000000
 -0.12936436D+00 -0.24111389D+00 -0.40884248D+00 -0.61873962D+00 -0.77182890D+00
 -0.66234403D+00 -0.25364258D+00  0.79115131D-04  0.84885344D-03  0.31290336D-02
  0.91491107D-02  0.11025123D-01 -0.13280929D-01 -0.22949723D-01  0.14402106D-02
  0.97891776D-03  0.16499801D+01  0.15999257D+01  0.10793004D+01  0.33408767D+00
  0.32395266D+00  0.21853655D+00  0.16862939D+00  0.16351379D+00  0.11030543D+00
  0.37217267D+00  0.68858486D-01  0.37486017D-01  0.60918614D-01  0.60370299D-02
  0.43756931D-02  0.19427845D-02  0.16200883D-04  0.57118522D-04  0.56819700D-02
 -0.23480506D-02 -0.33339194D-02  0.22454274D-02 -0.69084575D-01 -0.32151460D-01
  0.73799706D-03  0.42260356D-03 -0.11606006D-02 -0.12418387D-02 -0.17423141D-01
 -0.45893908D-02 -0.94917101D-04  0.17199136D-03 -0.77074261D-04 -0.27093275D-03
 -0.11256870D-02  0.16194553D-03 -0.99258229D-02  0.13080046D-02 -0.39039375D-03
  0.20793244D-01 -0.18536866D-02 -0.18699196D-02  0.89842244D-02 -0.20703273D-02
  0.30411009D-02 -0.11463903D-02 -0.34732210D-03 -0.35880235D-04  0.78442594D-04
  0.52932320D-03 -0.18118465D-03  0.50636805D-04  0.51264311D-03  0.28882535D-03
 -0.28596459D-03  0.10751302D-02 -0.14998707D-01 -0.27050785D-01 -0.39886367D-01
 -0.26581559D-01 -0.36823858D-02  0.14910973D-04  0.19934320D-01 -0.10392056D-01
 -0.77174995D-02  0.10986986D-01 -0.42116170D-02 -0.31446505D-02  0.17813651D-02
 -0.48830280D-04  0.21790424D-04  0.27881707D-02 -0.22969198D-02 -0.49125088D-03
  0.10077212D-01  0.69144721D-02 -0.64122957D-02  0.14225868D-03 -0.79672652D-04
 -0.62586026D-04  0.10491393D-02  0.56176465D-03 -0.27370547D-03  0.42391123D-02
  0.76454135D-02  0.11273158D-01  0.92048803D-02  0.10301596D-02 -0.38132231D-04
  0.25092060D-01 -0.93903375D-03  0.61939730D-02  0.13585820D-01 -0.50298669D-03
  0.27329503D-02  0.20338827D-02  0.27177837D-04  0.16041135D-03 -0.15292910D-02
  0.14195656D-03  0.13873345D-02 -0.12022923D-01  0.95820727D-02 -0.47355409D-02
 -0.23591831D-05 -0.62054848D-04  0.64414031D-04 -0.12890204D-02  0.89346817D-03
 -0.18113404D-03
MO    3     MO 0.0        OCC NO =    2.0000000  ORB. ENERGY =    0.000000
  0.42347091D+00  0.78928014D+00  0.13383354D+01  0.20254283D+01  0.25265622D+01
  0.21681662D+01  0.83029248D+00  0.20614768D-04  0.22118294D-03  0.81532195D-03
  0.23839536D-02  0.28727800D-02 -0.34605679D-02  0.47844930D-01 -0.20415869D-01
 -0.36218356D-02  0.51375868D+00  0.49817310D+00  0.33606463D+00  0.13158591D+00
  0.12759407D+00  0.86074204D-01 -0.67737362D+00 -0.65682456D+00 -0.44308997D+00
  0.11612349D+00  0.25998771D-01 -0.14571683D+00  0.19250434D-01  0.14160830D-02
 -0.17430809D-01  0.62366166D-03  0.40052714D-05 -0.35296396D-03 -0.21344834D-01
  0.26634777D-02  0.18681356D-01  0.21721866D-02 -0.19525360D-01 -0.18496532D-01
 -0.24361503D-02 -0.28880666D-02  0.53242169D-02 -0.41042344D-03 -0.50398132D-02
 -0.10183940D-02  0.39192747D-03 -0.64344201D-03  0.25151454D-03 -0.14598719D-03
 -0.36808716D-03  0.47094056D-03 -0.28742010D-02  0.12508176D-03 -0.31043002D-03
  0.64511913D-02 -0.10261340D-02  0.93778240D-02  0.21714118D-02  0.65088873D-03
 -0.84465340D-02 -0.15184954D-02 -0.11694489D-03  0.14240849D-03 -0.41783397D-03
  0.24014593D-03  0.96480094D-04 -0.17990573D-03  0.11068874D-03 -0.52370558D-03
  0.14334076D-02  0.40457614D-03  0.77626607D-02  0.14000278D-01  0.20643402D-01
  0.15769745D-01  0.31665013D-02  0.75418484D-04  0.69139584D-02  0.78425866D-02
 -0.27048054D-02  0.37823699D-02  0.41226454D-02 -0.12615106D-02  0.57327054D-03
  0.15578652D-03 -0.44048526D-03 -0.10032837D-03  0.18158844D-02 -0.17155560D-02
  0.35940098D-02  0.22683327D-02 -0.93924038D-03 -0.76956264D-04  0.13453179D-03
 -0.57575526D-04  0.36019681D-03  0.18887587D-03 -0.17314618D-03  0.16995209D-01
  0.30651559D-01  0.45195706D-01  0.31872405D-01  0.38584532D-02  0.15267121D-04
  0.78486934D-02 -0.14972028D-01  0.40815787D-02  0.42696248D-02 -0.54316127D-02
  0.31795613D-03  0.64527080D-03  0.63315822D-04 -0.57292564D-03 -0.15396363D-02
  0.27822338D-02 -0.12425975D-02 -0.37836519D-02  0.30316251D-02 -0.35387139D-02
  0.45103304D-04  0.42358510D-04 -0.87461814D-04 -0.40387963D-03  0.29663415D-03
  0.40696993D-03
MO    4     MO 0.0        OCC NO =    2.0000000  ORB. ENERGY =    0.000000
  0.23590297D+00  0.43968434D+00  0.74554659D+00  0.11283055D+01  0.14074722D+01
  0.12078205D+01  0.46253109D+00  0.27068637D-03  0.29042871D-02  0.10705749D-01
  0.31302983D-01  0.37721616D-01 -0.45439684D-01  0.43723246D-04  0.34498109D-01
  0.72630044D-02  0.46401253D-01  0.44993607D-01  0.30352421D-01 -0.16536441D+00
 -0.16034785D+00 -0.10816971D+00  0.13524030D+01  0.13113760D+01  0.88464647D+00
  0.10302572D-01 -0.27560741D-01  0.29297216D+00  0.12860407D-02  0.26268136D-03
  0.34025860D-01  0.24711580D-04  0.28595157D-04  0.66067708D-03  0.39498236D-01
 -0.29751817D-02 -0.36523055D-01 -0.19397352D-02 -0.52904302D-02  0.21453820D-01
  0.57007603D-02  0.47464939D-02 -0.10447254D-01 -0.13418455D-03 -0.13273236D-02
 -0.17793232D-02 -0.74639337D-03  0.12231831D-02 -0.47678977D-03  0.82162375D-04
 -0.15622242D-04 -0.11847204D-02 -0.64025467D-03 -0.14515661D-03  0.11956025D-02
  0.47154878D-03 -0.83986549D-04 -0.16173315D-01  0.14492152D-02  0.51945638D-03
  0.12586508D-01  0.19475207D-02 -0.17112213D-04 -0.25300794D-03  0.55164080D-03
 -0.67004543D-04 -0.22323929D-03 -0.25421791D-03  0.11834118D-03  0.98226312D-03
 -0.14007045D-02  0.20052677D-04 -0.22190072D-01 -0.40020708D-01 -0.59010510D-01
 -0.40227625D-01 -0.67836029D-02 -0.10609108D-03 -0.65240909D-03 -0.20815658D-01
  0.14268653D-02 -0.28362430D-03 -0.96799384D-02  0.12123095D-02  0.23773464D-04
 -0.24023931D-03  0.85355285D-03  0.26652269D-02 -0.57428730D-02  0.30776461D-02
 -0.73786265D-03 -0.11918324D-03 -0.43078729D-02  0.19625700D-03 -0.26042337D-03
  0.64166367D-04 -0.21627364D-04 -0.33168349D-05  0.24623064D-03 -0.34260763D-01
 -0.61790698D-01 -0.91110348D-01 -0.65940025D-01 -0.84287763D-02 -0.69005217D-04
  0.67020606D-03  0.34487098D-01 -0.10660429D-01  0.32903491D-03  0.13658183D-01
 -0.25100744D-02  0.38786456D-04  0.10244512D-03  0.95456991D-03  0.61231197D-02
 -0.82412767D-02  0.21181570D-02 -0.29178860D-03  0.18647804D-03  0.15852671D-01
 -0.33285547D-04 -0.15180509D-03  0.18509063D-03 -0.31960750D-04 -0.49866641D-05
 -0.64625076D-03
MO    5     MO 0.0        OCC NO =    2.0000000  ORB. ENERGY =    0.000000
 -0.84673235D-01 -0.15781699D+00 -0.26760088D+00 -0.40498547D+00 -0.50518746D+00
 -0.43352600D+00 -0.16601743D+00 -0.17174686D-02 -0.18427311D-01 -0.67926539D-01
 -0.19861321D+00 -0.23933858D+00  0.28830868D+00  0.16742277D+00  0.99252224D-01
  0.83121463D-02  0.82983440D-01  0.80466023D-01  0.54281904D-01  0.50747450D-01
  0.49207956D-01  0.33195397D-01  0.51356323D+00  0.49798358D+00  0.33593678D+00
  0.18313570D-01  0.81905778D-02  0.10816840D+00  0.29764305D-02  0.35317314D-03
  0.17756954D-01  0.85931997D-04  0.76350437D-05  0.33563565D-03 -0.75995340D-02
  0.21004666D-01 -0.13405132D-01  0.17459207D-02 -0.31991964D-02 -0.70089488D-02
 -0.36072188D-02  0.68524248D-02 -0.32452060D-02  0.69061778D-03 -0.57232404D-03
  0.10851983D-02 -0.23132688D-03  0.40153001D-03 -0.17020313D-03  0.35990108D-04
 -0.32740458D-04  0.13800369D-03 -0.36761534D-03 -0.13922281D-03  0.25930178D-02
  0.42911322D-03  0.28237693D-03 -0.31128151D-03  0.67373282D-03  0.13529152D-03
 -0.74677719D-02 -0.53599574D-03 -0.20317203D-05  0.25747523D-05 -0.81858811D-04
  0.10423097D-04  0.26574757D-03  0.49753602D-04 -0.43279359D-05 -0.27347183D-03
  0.19582283D-03  0.58203430D-05  0.77131430D-02  0.13910971D-01  0.20511719D-01
 -0.76975369D-02 -0.65721007D-02 -0.13000296D-03  0.16636890D-02  0.97357038D-02
  0.14473223D-01  0.40788933D-03 -0.34135140D-02  0.25204561D-02  0.58766678D-04
 -0.55776170D-03  0.26678871D-03 -0.39559266D-03 -0.15134215D-02  0.19090141D-02
  0.45406977D-03  0.56605143D-03  0.32434147D-02  0.14974899D-03 -0.25405701D-03
  0.10430802D-03  0.13194248D-04  0.17881685D-04 -0.89629720D-05  0.12232806D-01
  0.22062369D-01  0.32530950D-01 -0.28809626D-02 -0.59017604D-02 -0.12836021D-03
  0.13098357D-02 -0.13044657D-01  0.20288974D-01  0.72308328D-03  0.26614561D-02
  0.33361594D-02  0.10320034D-03  0.48683580D-03  0.29460462D-03 -0.15809656D-02
 -0.91743326D-03  0.24983989D-02 -0.66518823D-03  0.46367516D-03 -0.65998893D-02
  0.13262062D-03 -0.20339846D-03  0.70777840D-04 -0.68435939D-04  0.29311084D-04
  0.29577113D-04
END DATA
 TOTAL ENERGY =    -76.463084508206 THE VIRIAL(-V/T)=   2.00581126
