 32
GAUSSIAN              5 MOL ORBITALS    126 PRIMITIVES        3 NUCLEI   B3LYP   B3LYP   B3LYP
  O    1    (CENTRE  1)   0.00000000  0.00000000 -0.08633025  CHARGE =  8.0
  H    2    (CENTRE  2)  -0.09448631 -1.44255835 -1.09730160  CHARGE =  1.0
  H    3    (CENTRE  3)   0.00000000  1.44255835 -1.09730160  CHARGE =  1.0
CENTRE ASSIGNMENTS    1  1  1  1  1  1  1  1  1  1  1  1  1  1  1  1  1  1  1  1
CENTRE ASSIGNMENTS    1  1  1  1  1  1  1  1  1  1  1  1  1  1  1  1  1  1  1  1
CENTRE ASSIGNMENTS    1  1  1  1  1  1  1  1  1  1  1  1  1  1  1  1  1  1  1  1
CENTRE ASSIGNMENTS    1  1  1  1  1  1  1  1  1  1  1  1  2  2  2  2  2  2  2  2
CENTRE ASSIGNMENTS    2  2  2  2  2  2  2  2  2  2  2  2  2  2  2  2  2  2  2  3
CENTRE ASSIGNMENTS    3  3  3  3  3  3  3  3  3  3  3  3  3  3  3  3  3  3  3  3
CENTRE ASSIGNMENTS    3  3  3  3  3  3
TYPE ASSIGNMENTS      1  1  1  1  1  1  1  1  1  1  1  1  1  1  1  1  2  2  2  3
TYPE ASSIGNMENTS      3  3  4  4  4  2  3  4  2  3  4  2  3  4  5  6  7  8  9 10
TYPE ASSIGNMENTS      5  6  7  8  9 10  5  6  7  8  9 10 11 12 13 17 14 15 18 19
TYPE ASSIGNMENTS     16 20 11 12 13 17 14 15 18 19 16 20  1  1  1  1  1  1  2  3
TYPE ASSIGNMENTS      4  2  3  4  2  3  4  5  6  7  8  9 10  5  6  7  8  9 10  1
TYPE ASSIGNMENTS      1  1  1  1  1  2  3  4  2  3  4  2  3  4  5  6  7  8  9 10
TYPE ASSIGNMENTS      5  6  7  8  9 10
EXPONENTS  0.1533000D+05 0.2299000D+04 0.5224000D+03 0.1473000D+03 0.4755000D+02
EXPONENTS  0.1676000D+02 0.6207000D+01 0.5224000D+03 0.1473000D+03 0.4755000D+02
EXPONENTS  0.1676000D+02 0.6207000D+01 0.6882000D+00 0.1752000D+01 0.2384000D+00
EXPONENTS  0.7376000D-01 0.3446000D+02 0.7749000D+01 0.2280000D+01 0.3446000D+02
EXPONENTS  0.7749000D+01 0.2280000D+01 0.3446000D+02 0.7749000D+01 0.2280000D+01
EXPONENTS  0.7156000D+00 0.7156000D+00 0.7156000D+00 0.2140000D+00 0.2140000D+00
EXPONENTS  0.2140000D+00 0.5974000D-01 0.5974000D-01 0.5974000D-01 0.2314000D+01
EXPONENTS  0.2314000D+01 0.2314000D+01 0.2314000D+01 0.2314000D+01 0.2314000D+01
EXPONENTS  0.6450000D+00 0.6450000D+00 0.6450000D+00 0.6450000D+00 0.6450000D+00
EXPONENTS  0.6450000D+00 0.2140000D+00 0.2140000D+00 0.2140000D+00 0.2140000D+00
EXPONENTS  0.2140000D+00 0.2140000D+00 0.1428000D+01 0.1428000D+01 0.1428000D+01
EXPONENTS  0.1428000D+01 0.1428000D+01 0.1428000D+01 0.1428000D+01 0.1428000D+01
EXPONENTS  0.1428000D+01 0.1428000D+01 0.5000000D+00 0.5000000D+00 0.5000000D+00
EXPONENTS  0.5000000D+00 0.5000000D+00 0.5000000D+00 0.5000000D+00 0.5000000D+00
EXPONENTS  0.5000000D+00 0.5000000D+00 0.3387000D+02 0.5095000D+01 0.1159000D+01
EXPONENTS  0.3258000D+00 0.1027000D+00 0.2526000D-01 0.1407000D+01 0.1407000D+01
EXPONENTS  0.1407000D+01 0.3880000D+00 0.3880000D+00 0.3880000D+00 0.1020000D+00
EXPONENTS  0.1020000D+00 0.1020000D+00 0.1057000D+01 0.1057000D+01 0.1057000D+01
EXPONENTS  0.1057000D+01 0.1057000D+01 0.1057000D+01 0.2470000D+00 0.2470000D+00
EXPONENTS  0.2470000D+00 0.2470000D+00 0.2470000D+00 0.2470000D+00 0.3387000D+02
EXPONENTS  0.5095000D+01 0.1159000D+01 0.3258000D+00 0.1027000D+00 0.2526000D-01
EXPONENTS  0.1407000D+01 0.1407000D+01 0.1407000D+01 0.3880000D+00 0.3880000D+00
EXPONENTS  0.3880000D+00 0.1020000D+00 0.1020000D+00 0.1020000D+00 0.1057000D+01
EXPONENTS  0.1057000D+01 0.1057000D+01 0.1057000D+01 0.1057000D+01 0.1057000D+01
EXPONENTS  0.2470000D+00 0.2470000D+00 0.2470000D+00 0.2470000D+00 0.2470000D+00
EXPONENTS  0.2470000D+00
MO    1     MO 0.0        OCC NO =    2.0000000  ORB. ENERGY =    0.000000
 -0.23936033D-01 -0.44612831D-01 -0.75647324D-01 -0.11448418D+00 -0.14280999D+00
 -0.12255222D+00 -0.46930989D-01 -0.50814466D-03 -0.54520588D-02 -0.20097315D-01
 -0.58763371D-01 -0.70812719D-01  0.85301424D-01  0.49832746D-01 -0.25200550D-01
 -0.66275283D-02 -0.89906382D-01 -0.87178948D-01 -0.58810403D-01 -0.71891870D-01
 -0.69710931D-01 -0.47026582D-01 -0.14502203D+01 -0.14062259D+01 -0.94863169D+00
 -0.19640674D-01 -0.14530272D-01 -0.31459936D+00 -0.24578481D-02 -0.11694327D-02
 -0.36276892D-01 -0.58452963D-04 -0.77299101D-05 -0.75723694D-03 -0.46454051D-01
  0.10601212D-01  0.35852839D-01  0.40544854D-02  0.87483638D-02  0.64210282D-02
 -0.62554668D-02 -0.45844100D-02  0.10839877D-01  0.14552271D-03  0.18239296D-02
  0.70293332D-03  0.96491340D-03 -0.15737162D-02  0.60880283D-03 -0.17056775D-03
 -0.24488319D-04 -0.87604685D-04  0.99160882D-03 -0.35306416D-03  0.21610606D-03
 -0.12280742D-02  0.52416100D-03  0.18110755D-01 -0.17467523D-02  0.53503147D-03
 -0.18759073D-01 -0.24379341D-02 -0.47661771D-05 -0.67005829D-05 -0.70294719D-03
  0.10228830D-03  0.38508284D-04 -0.17386794D-03 -0.87989770D-04 -0.18406535D-04
  0.22827095D-02  0.15599868D-03  0.34324929D-01  0.61906423D-01  0.91280984D-01
  0.61102109D-01  0.72781654D-02  0.63831378D-04  0.11416103D-02  0.35094151D-01
  0.60838095D-02  0.25905818D-03  0.12706148D-01  0.48458678D-04 -0.78582723D-04
 -0.21861504D-04 -0.11498201D-02 -0.47932229D-02  0.84584826D-02 -0.36652597D-02
  0.12085230D-02  0.34719522D-03  0.10399209D-01 -0.34285584D-05  0.13730108D-03
 -0.13387252D-03 -0.44623518D-04 -0.48354091D-04 -0.80823706D-03  0.30429006D-01
  0.54879966D-01  0.80920478D-01  0.53713707D-01  0.63886764D-02  0.72321773D-04
 -0.12097487D-02 -0.32539732D-01  0.31847479D-02 -0.59594605D-03 -0.11747983D-01
 -0.11015226D-02 -0.78625895D-04  0.15905995D-04 -0.11738598D-02 -0.40221735D-02
  0.79103049D-02 -0.38881314D-02  0.55107610D-03 -0.35363242D-03 -0.80856411D-02
 -0.14752332D-05  0.15019344D-03 -0.14871821D-03  0.66716713D-04  0.52475845D-05
  0.86714636D-03
MO    2     MO 0.0        OCC NO =    2.0000000  ORB. ENERGY =    0.000000
  0.11765704D-01  0.21929337D-01  0.37184272D-01  0.56274442D-01  0.70197931D-01
  0.60240268D-01  0.23068822D-01  0.67288342D-04  0.72195975D-03  0.26612796D-02
  0.77814254D-02  0.93769960D-02 -0.11295585D-01 -0.55227249D-02 -0.70593716D-02
 -0.85480513D-03  0.41825408D-01  0.40556576D-01  0.27359227D-01  0.14734180D+01
  0.14287199D+01  0.96380597D+00 -0.11508103D+00 -0.11158988D+00 -0.75277877D-01
  0.83078789D-02  0.29621373D+00 -0.24735629D-01  0.57746851D-03  0.23294337D-01
 -0.31416707D-02  0.12360156D-05  0.16775032D-03 -0.64976626D-04 -0.24995520D-02
 -0.52050018D-03  0.30200522D-02 -0.61813526D-02 -0.38731967D-02 -0.13478357D+00
 -0.18718975D-03 -0.65370030D-03  0.84089005D-03 -0.66221686D-03 -0.33682080D-03
 -0.13490440D-01  0.76470407D-04 -0.12037982D-03  0.43909412D-04  0.87863462D-04
  0.68481396D-04  0.21524218D-02 -0.37261200D-03  0.74014744D-02 -0.10890776D-03
  0.15394806D-02 -0.13119722D-01  0.11186899D-02 -0.42164460D-03 -0.90847013D-02
 -0.79196658D-03  0.25896082D-03 -0.16410094D-04  0.17305269D-03 -0.34528441D-04
  0.54038174D-04 -0.47935709D-03 -0.16418541D-04 -0.48078934D-05 -0.39800990D-04
  0.12000386D-03  0.50433629D-04 -0.37843111D-01 -0.68251608D-01 -0.10063696D+00
 -0.70946450D-01 -0.79550947D-02  0.97666469D-04 -0.22671271D-02 -0.25591267D-01
 -0.30246915D-01 -0.83775834D-03 -0.87963447D-02 -0.11586951D-01 -0.97303140D-05
  0.15359786D-03 -0.28861431D-03  0.78398526D-02 -0.53939267D-02 -0.24459259D-02
 -0.19818472D-02 -0.17461771D-02 -0.23594442D-01 -0.73995251D-04  0.19758163D-03
 -0.12358638D-03 -0.68636837D-05 -0.21891484D-04 -0.50902797D-03  0.40358882D-01
  0.72788906D-01  0.10732720D+00  0.78114874D-01  0.94047986D-02 -0.75510303D-04
  0.40878299D-03 -0.28188929D-01  0.28837812D-01  0.16671961D-03 -0.10547359D-01
  0.11134585D-01  0.71415607D-05  0.10288960D-03  0.10876697D-03 -0.82610506D-02
  0.64794740D-02  0.17815767D-02 -0.14708373D-03  0.14840362D-03 -0.23971097D-01
  0.59421153D-04 -0.15442253D-03  0.95001380D-04 -0.31501851D-04 -0.10101917D-04
 -0.39230791D-03
MO    3     MO 0.0        OCC NO =    2.0000000  ORB. ENERGY =    0.000000
 -0.25129767D-01 -0.46837754D-01 -0.79419995D-01 -0.12019372D+00 -0.14993219D+00
 -0.12866412D+00 -0.49271524D-01  0.18979898D-03  0.20364185D-02  0.75066220D-02
  0.21948922D-01  0.26449519D-01 -0.31861248D-01 -0.22520009D-01 -0.12777217D-01
 -0.12278721D-02  0.17618596D+01  0.17084112D+01  0.11524841D+01 -0.65996772D-01
 -0.63994669D-01 -0.43170426D-01 -0.18961640D+00 -0.18386412D+00 -0.12403365D+00
  0.39758812D+00 -0.14689720D-01 -0.41583385D-01  0.64543856D-01 -0.22503733D-02
 -0.63795844D-02  0.20348237D-02 -0.67885348D-04 -0.16369120D-03 -0.35235200D-02
 -0.29196208D-02  0.64431408D-02  0.15987698D-03 -0.72656191D-01  0.31362666D-02
 -0.62251127D-03 -0.95720588D-03  0.15797171D-02 -0.42658770D-04 -0.17643081D-01
  0.65563774D-03  0.74286352D-07 -0.88367254D-04  0.88292968D-04 -0.11856933D-04
 -0.10703859D-02  0.25334874D-04 -0.10590179D-01 -0.83993308D-03 -0.69806751D-03
  0.24317237D-01  0.27130619D-02  0.26913926D-02  0.74532999D-02 -0.19326262D-03
 -0.59719006D-03 -0.24425209D-03 -0.19588383D-03 -0.58496378D-05  0.32616927D-06
  0.14784327D-03  0.33069901D-04  0.92082579D-04  0.43980823D-03 -0.15520988D-04
 -0.93061087D-04  0.76613247D-05 -0.21866543D-03 -0.39437210D-03 -0.58150143D-03
  0.26581511D-02  0.10177924D-02  0.17316521D-04  0.25984261D-01 -0.12083256D-02
 -0.31335339D-02  0.14233180D-01  0.39628318D-03 -0.99635647D-03  0.21606564D-02
 -0.52414176D-06 -0.17335565D-03  0.72557651D-03  0.78351149D-04 -0.80392765D-03
  0.13114405D-01  0.89498529D-02 -0.10262107D-02  0.64572338D-04 -0.82739371D-05
 -0.56298400D-04  0.14314842D-02  0.84191763D-03 -0.11409970D-03 -0.66037265D-03
 -0.11910093D-02 -0.17561425D-02  0.18382305D-02  0.91856434D-03  0.18338319D-04
  0.26086033D-01 -0.19881377D-03 -0.34735306D-02  0.14218481D-01 -0.12219906D-02
 -0.11236364D-02  0.21606109D-02 -0.14093834D-03 -0.17561360D-03 -0.41975714D-04
  0.87257576D-03 -0.83060004D-03 -0.13114896D-01  0.90363079D-02  0.70398218D-03
 -0.29553087D-04  0.87027553D-04 -0.57474466D-04 -0.14325201D-02  0.85307010D-03
  0.64087712D-04
MO    4     MO 0.0        OCC NO =    2.0000000  ORB. ENERGY =    0.000000
  0.37997089D+00  0.70820326D+00  0.12008581D+01  0.18173711D+01  0.22670272D+01
  0.19454466D+01  0.74500270D+00  0.13483517D-02  0.14466929D-01  0.53327825D-01
  0.15592743D+00  0.18790014D+00 -0.22634563D+00 -0.94468696D-01 -0.79553342D-01
 -0.71214551D-02 -0.12237811D+00 -0.11866560D+00 -0.80051115D-01 -0.74896681D-01
 -0.72624586D-01 -0.48992117D-01 -0.57015277D+00 -0.55285639D+00 -0.37295366D+00
 -0.27229927D-01 -0.14915901D-01 -0.12185787D+00 -0.43369243D-02 -0.10918306D-02
 -0.18950133D-01 -0.12584558D-03 -0.45831668D-05 -0.38759025D-03  0.50738118D-03
 -0.16688677D-01  0.16181296D-01 -0.79545714D-03  0.55735076D-02  0.70115499D-02
  0.19523162D-02 -0.59426579D-02  0.39903417D-02 -0.48401202D-03  0.11519433D-02
  0.65361880D-03  0.25075342D-03 -0.45777611D-03  0.20702269D-03 -0.51563605D-04
  0.48739957D-04 -0.11813758D-03  0.73245697D-03 -0.35125950D-03 -0.14202661D-02
 -0.13108001D-02  0.52961406D-03  0.31098144D-02 -0.88657080D-03  0.52416445D-03
  0.11509838D-02 -0.14435500D-03  0.50004737D-05 -0.81656288D-05  0.80611963D-05
 -0.52112971D-05  0.21836851D-04 -0.13394469D-03 -0.97901240D-05  0.26600356D-05
  0.10976110D-03  0.12913168D-04 -0.38877060D-02 -0.70116379D-02 -0.10338656D-01
  0.11683728D-01  0.57649604D-02  0.10150019D-03 -0.22004897D-02 -0.63399815D-02
 -0.13179633D-01 -0.76168589D-03  0.34851799D-02 -0.26799772D-02 -0.12135712D-03
  0.38241540D-03 -0.42341518D-03  0.86707701D-03  0.11908554D-02 -0.20579324D-02
 -0.90687415D-03 -0.91778281D-03 -0.49739141D-02 -0.12062266D-03  0.22407547D-03
 -0.10345281D-03 -0.58699198D-04 -0.47255555D-04 -0.11652982D-03 -0.80897090D-02
 -0.14590123D-01 -0.21513128D-01  0.36894775D-02  0.48215605D-02  0.11010865D-03
 -0.18405628D-02  0.93862810D-02 -0.16403668D-01 -0.10135530D-02 -0.23727006D-02
 -0.39117187D-02 -0.14780983D-03 -0.38395593D-03 -0.44674470D-03  0.18123292D-02
  0.47978812D-03 -0.22921173D-02  0.96402641D-03 -0.61195904D-03  0.76233141D-02
 -0.12127888D-03  0.23615257D-03 -0.11487369D-03  0.10728583D-03 -0.38716851D-04
  0.16927291D-03
MO    5     MO 0.0        OCC NO =    2.0000000  ORB. ENERGY =    0.000000
  0.33692989D+00  0.62798191D+00  0.10648316D+01  0.16115094D+01  0.20102309D+01
  0.17250772D+01  0.66061292D+00 -0.93491570D-03 -0.10031032D-01 -0.36976272D-01
 -0.10811645D+00 -0.13028558D+00  0.15694279D+00  0.13595178D+00  0.62385395D-01
  0.58501423D-02  0.25754955D+00  0.24973643D+00  0.16847072D+00  0.22999300D-01
  0.22301585D-01  0.15044517D-01  0.44376045D+00  0.43029836D+00  0.29027673D+00
  0.57839443D-01  0.44320661D-02  0.94857302D-01  0.93130440D-02  0.19918061D-03
  0.14187500D-01  0.28524672D-03 -0.54507023D-05  0.28191977D-03 -0.33819741D-02
  0.16165593D-01 -0.12783619D-01  0.11561444D-02 -0.10774734D-01 -0.25671519D-02
 -0.14325576D-02  0.44540651D-02 -0.30215076D-02  0.36939425D-03 -0.25344346D-02
 -0.20246562D-03 -0.20554176D-03  0.35133081D-03 -0.14578904D-03  0.37773971D-04
 -0.13649416D-03  0.48095523D-04 -0.14631217D-02  0.55936105D-04  0.19676756D-02
  0.30276080D-02  0.54362630D-04 -0.55652280D-03  0.13617572D-02 -0.22217094D-03
 -0.53465039D-02 -0.30755731D-03 -0.37390983D-04  0.12800494D-05 -0.21651333D-03
  0.61784939D-04  0.55775437D-06 -0.22451970D-03  0.50388010D-04 -0.43979026D-05
  0.87405968D-03  0.75204875D-04  0.28142818D-02  0.50756731D-02  0.74840770D-02
 -0.10591612D-01 -0.47849661D-02 -0.84359541D-04  0.40146505D-02  0.28399181D-02
  0.93531441D-02  0.18233640D-02 -0.41493168D-02  0.12769881D-02  0.28847970D-03
 -0.38263601D-03  0.26220840D-03  0.10482652D-02 -0.27259690D-02  0.16777038D-02
  0.14895944D-02  0.12589134D-02 -0.45386384D-03  0.12820964D-03 -0.19392230D-03
  0.65712653D-04  0.17161916D-03  0.10877027D-03  0.17159397D-04  0.44923303D-02
  0.81021028D-02  0.11946546D-01 -0.74650314D-02 -0.44235249D-02 -0.88201905D-04
  0.38540200D-02 -0.42262663D-02  0.10627048D-01  0.21060512D-02  0.36281219D-02
  0.17479825D-02  0.31412230D-03  0.36935853D-03  0.27029291D-03  0.59743184D-03
 -0.23671665D-02  0.17697347D-02 -0.19818941D-02  0.12990366D-02 -0.62018865D-03
  0.11828766D-03 -0.18877343D-03  0.70485772D-04 -0.21427916D-03  0.10775255D-03
 -0.42470623D-04
END DATA
 TOTAL ENERGY =    -76.464232549335 THE VIRIAL(-V/T)=   2.00453858
