 33
GAUSSIAN              5 MOL ORBITALS    126 PRIMITIVES        3 NUCLEI   B3LYP   B3LYP   B3LYP
  O    1    (CENTRE  1)   0.00000000  0.00000000  0.00815606  CHARGE =  8.0
  H    2    (CENTRE  2)  -0.09448631 -1.44255835 -1.09730160  CHARGE =  1.0
  H    3    (CENTRE  3)   0.00000000  1.44255835 -1.09730160  CHARGE =  1.0
CENTRE ASSIGNMENTS    1  1  1  1  1  1  1  1  1  1  1  1  1  1  1  1  1  1  1  1
CENTRE ASSIGNMENTS    1  1  1  1  1  1  1  1  1  1  1  1  1  1  1  1  1  1  1  1
CENTRE ASSIGNMENTS    1  1  1  1  1  1  1  1  1  1  1  1  1  1  1  1  1  1  1  1
CENTRE ASSIGNMENTS    1  1  1  1  1  1  1  1  1  1  1  1  2  2  2  2  2  2  2  2
CENTRE ASSIGNMENTS    2  2  2  2  2  2  2  2  2  2  2  2  2  2  2  2  2  2  2  3
CENTRE ASSIGNMENTS    3  3  3  3  3  3  3  3  3  3  3  3  3  3  3  3  3  3  3  3
CENTRE ASSIGNMENTS    3  3  3  3  3  3
TYPE ASSIGNMENTS      1  1  1  1  1  1  1  1  1  1  1  1  1  1  1  1  2  2  2  3
TYPE ASSIGNMENTS      3  3  4  4  4  2  3  4  2  3  4  2  3  4  5  6  7  8  9 10
TYPE ASSIGNMENTS      5  6  7  8  9 10  5  6  7  8  9 10 11 12 13 17 14 15 18 19
TYPE ASSIGNMENTS     16 20 11 12 13 17 14 15 18 19 16 20  1  1  1  1  1  1  2  3
TYPE ASSIGNMENTS      4  2  3  4  2  3  4  5  6  7  8  9 10  5  6  7  8  9 10  1
TYPE ASSIGNMENTS      1  1  1  1  1  2  3  4  2  3  4  2  3  4  5  6  7  8  9 10
TYPE ASSIGNMENTS      5  6  7  8  9 10
EXPONENTS  0.1533000D+05 0.2299000D+04 0.5224000D+03 0.1473000D+03 0.4755000D+02
EXPONENTS  0.1676000D+02 0.6207000D+01 0.5224000D+03 0.1473000D+03 0.4755000D+02
EXPONENTS  0.1676000D+02 0.6207000D+01 0.6882000D+00 0.1752000D+01 0.2384000D+00
EXPONENTS  0.7376000D-01 0.3446000D+02 0.7749000D+01 0.2280000D+01 0.3446000D+02
EXPONENTS  0.7749000D+01 0.2280000D+01 0.3446000D+02 0.7749000D+01 0.2280000D+01
EXPONENTS  0.7156000D+00 0.7156000D+00 0.7156000D+00 0.2140000D+00 0.2140000D+00
EXPONENTS  0.2140000D+00 0.5974000D-01 0.5974000D-01 0.5974000D-01 0.2314000D+01
EXPONENTS  0.2314000D+01 0.2314000D+01 0.2314000D+01 0.2314000D+01 0.2314000D+01
EXPONENTS  0.6450000D+00 0.6450000D+00 0.6450000D+00 0.6450000D+00 0.6450000D+00
EXPONENTS  0.6450000D+00 0.2140000D+00 0.2140000D+00 0.2140000D+00 0.2140000D+00
EXPONENTS  0.2140000D+00 0.2140000D+00 0.1428000D+01 0.1428000D+01 0.1428000D+01
EXPONENTS  0.1428000D+01 0.1428000D+01 0.1428000D+01 0.1428000D+01 0.1428000D+01
EXPONENTS  0.1428000D+01 0.1428000D+01 0.5000000D+00 0.5000000D+00 0.5000000D+00
EXPONENTS  0.5000000D+00 0.5000000D+00 0.5000000D+00 0.5000000D+00 0.5000000D+00
EXPONENTS  0.5000000D+00 0.5000000D+00 0.3387000D+02 0.5095000D+01 0.1159000D+01
EXPONENTS  0.3258000D+00 0.1027000D+00 0.2526000D-01 0.1407000D+01 0.1407000D+01
EXPONENTS  0.1407000D+01 0.3880000D+00 0.3880000D+00 0.3880000D+00 0.1020000D+00
EXPONENTS  0.1020000D+00 0.1020000D+00 0.1057000D+01 0.1057000D+01 0.1057000D+01
EXPONENTS  0.1057000D+01 0.1057000D+01 0.1057000D+01 0.2470000D+00 0.2470000D+00
EXPONENTS  0.2470000D+00 0.2470000D+00 0.2470000D+00 0.2470000D+00 0.3387000D+02
EXPONENTS  0.5095000D+01 0.1159000D+01 0.3258000D+00 0.1027000D+00 0.2526000D-01
EXPONENTS  0.1407000D+01 0.1407000D+01 0.1407000D+01 0.3880000D+00 0.3880000D+00
EXPONENTS  0.3880000D+00 0.1020000D+00 0.1020000D+00 0.1020000D+00 0.1057000D+01
EXPONENTS  0.1057000D+01 0.1057000D+01 0.1057000D+01 0.1057000D+01 0.1057000D+01
EXPONENTS  0.2470000D+00 0.2470000D+00 0.2470000D+00 0.2470000D+00 0.2470000D+00
EXPONENTS  0.2470000D+00
MO    1     MO 0.0        OCC NO =    2.0000000  ORB. ENERGY =    0.000000
 -0.27153451D+00 -0.50609568D+00 -0.85815635D+00 -0.12987284D+01 -0.16200613D+01
 -0.13902536D+01 -0.53239327D+00 -0.13938906D-03 -0.14955531D-02 -0.55128904D-02
 -0.16119368D-01 -0.19424623D-01  0.23399016D-01 -0.17582764D-01  0.13647814D-01
  0.18197452D-02  0.20916312D+00  0.20281787D+00  0.13681973D+00  0.12074008D+01
  0.11707726D+01  0.78979627D+00  0.26195122D+00  0.25400457D+00  0.17134998D+00
  0.46357321D-01  0.24972380D+00  0.56155795D-01  0.69550078D-02  0.23423287D-01
  0.71047651D-02  0.20194361D-03  0.22759599D-03  0.13783844D-03  0.67753335D-02
  0.56466677D-04 -0.68318001D-02 -0.52942684D-02 -0.11390876D-01 -0.11324002D+00
  0.47160604D-03  0.15112533D-02 -0.19828593D-02 -0.56730896D-03 -0.23716636D-02
 -0.14738084D-01 -0.15362228D-03  0.25586001D-03 -0.10223773D-03  0.62630548D-04
 -0.78660833D-04  0.85012103D-03 -0.14914786D-02  0.56008127D-02  0.85641086D-04
  0.34738329D-02 -0.12052205D-01 -0.32297342D-02  0.10006028D-02 -0.47502333D-02
  0.29728110D-02  0.10602577D-02 -0.51470594D-04  0.98149731D-04  0.16222501D-03
  0.79312093D-04 -0.70242832D-03  0.13023448D-03  0.75099688D-04  0.40797913D-03
 -0.61690950D-03  0.48726195D-04 -0.34831122D-01 -0.62819362D-01 -0.92627113D-01
 -0.66173153D-01 -0.86024272D-02  0.72435864D-04  0.58364186D-03 -0.20485290D-01
 -0.21952036D-01  0.54879346D-03 -0.81690836D-02 -0.88360490D-02  0.19104708D-03
  0.16928734D-03  0.27923097D-04  0.59521701D-02 -0.37440787D-02 -0.22080913D-02
 -0.27343224D-03 -0.44815496D-03 -0.17084788D-01  0.78138515D-04  0.67652787D-04
 -0.14579130D-03  0.96387462D-04  0.38769764D-04 -0.41082612D-03  0.27542835D-01
  0.49674637D-01  0.73245223D-01  0.49155418D-01  0.52859892D-02 -0.12212458D-03
  0.27546132D-02 -0.14516787D-01  0.24117306D-01  0.14571494D-02 -0.46407610D-02
  0.96319226D-02  0.20837179D-03  0.26682252D-03  0.34956130D-03 -0.59269712D-02
  0.23760539D-02  0.35509174D-02 -0.13284254D-02  0.10247805D-02 -0.18190877D-01
 -0.26235342D-04 -0.16925038D-03  0.19548573D-03 -0.14881539D-03  0.71363684D-04
 -0.57559588D-03
MO    2     MO 0.0        OCC NO =    2.0000000  ORB. ENERGY =    0.000000
  0.15112291D+00  0.28166826D+00  0.47760812D+00  0.72280910D+00  0.90164738D+00
  0.77374759D+00  0.29630422D+00 -0.45208220D-03 -0.48505453D-02 -0.17880023D-01
 -0.52280139D-01 -0.63000110D-01  0.75890309D-01  0.64236864D-01 -0.93987920D-02
 -0.41653238D-02 -0.82701873D+00 -0.80192997D+00 -0.54097722D+00  0.59745062D+00
  0.57932613D+00  0.39080999D+00 -0.94237342D+00 -0.91378522D+00 -0.61643411D+00
 -0.18679161D+00  0.12406494D+00 -0.20491282D+00 -0.30543489D-01  0.12072151D-01
 -0.23173144D-01 -0.97417640D-03  0.14150957D-03 -0.44195588D-03 -0.32480469D-01
  0.78638810D-02  0.24616588D-01  0.32414629D-03  0.36191293D-01 -0.54675239D-01
 -0.47522934D-02 -0.27229980D-02  0.74752915D-02 -0.15495000D-03  0.93458826D-02
 -0.72252536D-02  0.54724320D-03 -0.91899104D-03  0.37174784D-03 -0.76298213D-04
  0.56338588D-03  0.39194562D-03  0.51748151D-02  0.30010622D-02  0.20370468D-04
 -0.99753882D-02 -0.69877584D-02  0.12580310D-01 -0.55490570D-02 -0.20154282D-02
 -0.12641422D-01 -0.13318831D-02  0.16240060D-03  0.56307702D-04 -0.53271846D-03
 -0.15798701D-03 -0.35688192D-03  0.33369649D-04 -0.32921478D-03  0.18795881D-03
  0.15647857D-02  0.13551313D-03  0.88176177D-02  0.15902937D-01  0.23448871D-01
  0.12458243D-01  0.15307844D-02  0.91905802D-04 -0.10887152D-01  0.14797331D-01
 -0.49566906D-02 -0.60475025D-02  0.54157819D-02 -0.34936552D-02 -0.96321113D-03
  0.16697628D-03 -0.71755979D-03 -0.42340498D-03  0.35038505D-02 -0.30804455D-02
 -0.53782499D-02 -0.44129573D-02 -0.14642949D-02 -0.67467757D-04  0.20611816D-03
 -0.13865040D-03 -0.58813454D-03 -0.38703852D-03 -0.52393928D-03  0.38170160D-01
  0.68841455D-01  0.10150669D+00  0.66728178D-01  0.80401207D-02 -0.46671645D-07
 -0.11478821D-01 -0.30558405D-01  0.16752787D-01 -0.62324282D-02 -0.11010962D-01
  0.51816580D-02 -0.96086423D-03  0.10937236D-03 -0.56981626D-03 -0.56370597D-02
  0.60130123D-02 -0.37595257D-03  0.56987321D-02 -0.41609360D-02 -0.14871860D-01
 -0.70147772D-04  0.50833950D-04  0.19313822D-04  0.59651493D-03 -0.35210043D-03
  0.95327892D-04
MO    3     MO 0.0        OCC NO =    2.0000000  ORB. ENERGY =    0.000000
  0.38738371D+00  0.72201954D+00  0.12242856D+01  0.18528260D+01  0.23112545D+01
  0.19834002D+01  0.75953690D+00  0.77581222D-03  0.83239560D-02  0.30683669D-01
  0.89717249D-01  0.10811365D+00 -0.13023435D+00 -0.34149640D-01 -0.16054933D-01
  0.11286485D-02  0.18949281D-01  0.18374428D-01  0.12395281D-01  0.57865031D+00
  0.56109615D+00  0.37851215D+00  0.57007576D+00  0.55278172D+00  0.37290328D+00
  0.38075294D-02  0.11982400D+00  0.12602368D+00  0.30285560D-04  0.11322015D-01
  0.13209527D-01 -0.14201106D-04  0.11297334D-03  0.25996150D-03  0.23556855D-01
 -0.82997494D-02 -0.15257105D-01 -0.44071987D-02 -0.41033510D-02 -0.54035410D-01
  0.46601702D-02  0.11250315D-03 -0.47726734D-02 -0.60264700D-03 -0.78338125D-03
 -0.70960031D-02 -0.27515543D-03  0.51483045D-03 -0.23967502D-03  0.68730668D-04
  0.33170257D-04  0.39254132D-03 -0.40977549D-03  0.27095066D-02 -0.17302934D-04
  0.71105980D-03 -0.58731523D-02 -0.84334031D-02  0.51826666D-03 -0.22553676D-02
  0.84853119D-02  0.14266933D-02 -0.20980545D-04  0.46529966D-04  0.27261860D-03
 -0.72235967D-06 -0.34224143D-03 -0.34741420D-03  0.63663996D-04  0.20265154D-03
 -0.47044161D-03  0.38577963D-04 -0.33997865D-01 -0.61316549D-01 -0.90411216D-01
 -0.55115318D-01 -0.54819158D-02  0.43319481D-04 -0.20581890D-02 -0.27649773D-01
 -0.19080433D-01 -0.72224437D-03 -0.87718836D-02 -0.58862503D-02 -0.10113124D-04
  0.16196774D-03  0.30312961D-03  0.59717713D-02 -0.54058880D-02 -0.56588332D-03
 -0.16313826D-02 -0.12356031D-02 -0.16725770D-01  0.42208590D-04  0.85488525D-05
 -0.50757442D-04 -0.21873276D-04 -0.20469804D-04 -0.46124958D-04 -0.42806175D-02
 -0.77202699D-02 -0.11383534D-01 -0.20577128D-03  0.11344021D-02 -0.49857525D-04
  0.14763875D-03  0.11166322D-01  0.28138186D-02  0.30073057D-04  0.27523511D-02
  0.28998990D-02 -0.70930274D-05  0.54815732D-04  0.45635199D-03  0.40454202D-03
 -0.25798787D-02  0.21753367D-02 -0.25231988D-04  0.28326915D-04  0.45876168D-04
 -0.45792133D-05 -0.10915161D-03  0.11373082D-03 -0.74060141D-05 -0.14813894D-04
 -0.42456700D-03
MO    4     MO 0.0        OCC NO =    2.0000000  ORB. ENERGY =    0.000000
  0.10411185D+00  0.19404737D+00  0.32903458D+00  0.49795885D+00  0.62116441D+00
  0.53305148D+00  0.20413040D+00  0.24105889D-04  0.25864037D-03  0.95339712D-03
  0.27876772D-02  0.33592866D-02 -0.40466167D-02  0.96357891D-02 -0.22183138D-01
 -0.38313116D-02  0.15486960D+01  0.15017142D+01  0.10130475D+01  0.12527491D+00
  0.12147452D+00  0.81945994D-01 -0.72388993D+00 -0.70192973D+00 -0.47351765D+00
  0.34990474D+00  0.24921030D-01 -0.15746571D+00  0.57725767D-01  0.15132178D-02
 -0.19727913D-01  0.18569092D-02 -0.27355359D-04 -0.41829564D-03 -0.21235045D-01
  0.10153290D-02  0.20219716D-01  0.81669798D-03 -0.61593969D-01 -0.14516551D-01
 -0.30713858D-02 -0.27525821D-02  0.58239679D-02 -0.85681651D-04 -0.15970592D-01
 -0.16026529D-02  0.30019240D-03 -0.60541016D-03  0.30521776D-03 -0.58287623D-04
 -0.10994170D-02  0.16753127D-03 -0.90633520D-02  0.18003234D-03 -0.89542091D-03
  0.19583757D-01  0.38261716D-03  0.98973214D-02  0.76062996D-02 -0.92271418D-03
 -0.72110587D-02 -0.10519733D-02 -0.33370400D-03 -0.10422245D-05 -0.32577156D-03
  0.53559166D-03 -0.31760984D-04  0.11694547D-03  0.46552033D-03  0.34887657D-04
  0.86036921D-03  0.77895543D-04  0.75174976D-02  0.13558116D-01  0.19991435D-01
  0.15641499D-01  0.28408576D-02  0.62867402D-04  0.21900302D-01  0.80753814D-02
 -0.39913709D-02  0.11917444D-01  0.39958008D-02 -0.19909278D-02  0.18122186D-02
  0.79375427D-04 -0.54714487D-03  0.59354218D-04  0.21700350D-02 -0.22293892D-02
  0.11012679D-01  0.78782264D-02 -0.33463223D-03  0.18704625D-04  0.94406679D-04
 -0.11311130D-03  0.11312255D-02  0.68846151D-03 -0.33458728D-03  0.16583631D-01
  0.29909261D-01  0.44101188D-01  0.32424943D-01  0.48436332D-02  0.34370778D-04
  0.21510486D-01 -0.14611360D-01  0.27133561D-02  0.11718807D-01 -0.66245079D-02
  0.68689809D-03  0.18111265D-02 -0.12990290D-03 -0.50230243D-03 -0.23744067D-02
  0.37720788D-02 -0.13976721D-02 -0.10711212D-01  0.79669378D-02 -0.53232980D-02
 -0.66674080D-04  0.13141685D-03 -0.64742769D-04 -0.11224384D-02  0.71431401D-03
  0.15130201D-03
MO    5     MO 0.0        OCC NO =    2.0000000  ORB. ENERGY =    0.000000
  0.42276350D-01  0.78796164D-01  0.13360997D+00  0.20220448D+00  0.25223415D+00
  0.21645443D+00  0.82890547D-01 -0.14870960D-02 -0.15955564D-01 -0.58815214D-01
 -0.17197224D+00 -0.20723491D+00  0.24963641D+00  0.15864530D+00  0.10209564D+00
  0.99437723D-02  0.28135059D+00  0.27281543D+00  0.18403968D+00  0.86963084D-02
  0.84324939D-02  0.56885106D-02  0.88836900D+00  0.86141910D+00  0.58110823D+00
  0.63056363D-01  0.16439331D-02  0.18955492D+00  0.10172909D-01  0.25307126D-04
  0.26738684D-01  0.31097709D-03 -0.64100781D-05  0.50953807D-03  0.48229777D-02
  0.18590657D-01 -0.23413635D-01  0.84008386D-03 -0.12435612D-01 -0.12747601D-02
 -0.16455381D-02  0.78330619D-02 -0.61875237D-02  0.60997542D-03 -0.29655458D-02
 -0.11648503D-03 -0.45342696D-03  0.76114591D-03 -0.30771895D-03  0.79261200D-04
 -0.15749427D-03  0.13708855D-04 -0.16756027D-02 -0.14003696D-04  0.27804613D-02
  0.29159842D-02  0.17365191D-03 -0.50018016D-02  0.21108240D-02 -0.13164082D-03
 -0.33395823D-02  0.11491604D-03 -0.53676520D-04 -0.19450051D-05  0.83449007D-04
  0.67195502D-04  0.22262372D-05 -0.38551318D-04  0.93834058D-04  0.36087782D-05
 -0.21179570D-03 -0.75456742D-05 -0.18261728D-03 -0.32935778D-03 -0.48563786D-03
 -0.22492472D-01 -0.82693947D-02 -0.14550442D-03  0.40071733D-02  0.13332732D-02
  0.14012637D-01  0.17058784D-02 -0.67509015D-02  0.22287587D-02  0.28702572D-03
 -0.55165676D-03  0.52176689D-03  0.77855007D-03 -0.35210265D-02  0.27424765D-02
  0.14276829D-02  0.14377458D-02  0.68322336D-03  0.17159502D-03 -0.28117494D-03
  0.10957991D-03  0.15034101D-03  0.10741389D-03  0.95018769D-04  0.74530778D-03
  0.13441933D-02  0.19820122D-02 -0.20849423D-01 -0.80641762D-02 -0.14821152D-03
  0.39355474D-02 -0.20854165D-02  0.14716333D-01  0.21548798D-02  0.64477970D-02
  0.24930638D-02  0.32355511D-03  0.53706624D-03  0.52728992D-03  0.49370341D-03
 -0.33244358D-02  0.28307324D-02 -0.19847945D-02  0.14008682D-02 -0.12837150D-02
  0.15709332D-03 -0.27184037D-03  0.11474704D-03 -0.20937526D-03  0.10188458D-03
 -0.11787239D-03
END DATA
 TOTAL ENERGY =    -76.466195734020 THE VIRIAL(-V/T)=   2.00599447
