 41
GAUSSIAN              5 MOL ORBITALS    126 PRIMITIVES        3 NUCLEI   B3LYP   B3LYP   B3LYP
  O    1    (CENTRE  1)   0.00000000 -0.09448631  0.00815606  CHARGE =  8.0
  H    2    (CENTRE  2)   0.00000000 -1.34807204 -1.09730160  CHARGE =  1.0
  H    3    (CENTRE  3)   0.00000000  1.44255835 -1.09730160  CHARGE =  1.0
CENTRE ASSIGNMENTS    1  1  1  1  1  1  1  1  1  1  1  1  1  1  1  1  1  1  1  1
CENTRE ASSIGNMENTS    1  1  1  1  1  1  1  1  1  1  1  1  1  1  1  1  1  1  1  1
CENTRE ASSIGNMENTS    1  1  1  1  1  1  1  1  1  1  1  1  1  1  1  1  1  1  1  1
CENTRE ASSIGNMENTS    1  1  1  1  1  1  1  1  1  1  1  1  2  2  2  2  2  2  2  2
CENTRE ASSIGNMENTS    2  2  2  2  2  2  2  2  2  2  2  2  2  2  2  2  2  2  2  3
CENTRE ASSIGNMENTS    3  3  3  3  3  3  3  3  3  3  3  3  3  3  3  3  3  3  3  3
CENTRE ASSIGNMENTS    3  3  3  3  3  3
TYPE ASSIGNMENTS      1  1  1  1  1  1  1  1  1  1  1  1  1  1  1  1  2  2  2  3
TYPE ASSIGNMENTS      3  3  4  4  4  2  3  4  2  3  4  2  3  4  5  6  7  8  9 10
TYPE ASSIGNMENTS      5  6  7  8  9 10  5  6  7  8  9 10 11 12 13 17 14 15 18 19
TYPE ASSIGNMENTS     16 20 11 12 13 17 14 15 18 19 16 20  1  1  1  1  1  1  2  3
TYPE ASSIGNMENTS      4  2  3  4  2  3  4  5  6  7  8  9 10  5  6  7  8  9 10  1
TYPE ASSIGNMENTS      1  1  1  1  1  2  3  4  2  3  4  2  3  4  5  6  7  8  9 10
TYPE ASSIGNMENTS      5  6  7  8  9 10
EXPONENTS  0.1533000D+05 0.2299000D+04 0.5224000D+03 0.1473000D+03 0.4755000D+02
EXPONENTS  0.1676000D+02 0.6207000D+01 0.5224000D+03 0.1473000D+03 0.4755000D+02
EXPONENTS  0.1676000D+02 0.6207000D+01 0.6882000D+00 0.1752000D+01 0.2384000D+00
EXPONENTS  0.7376000D-01 0.3446000D+02 0.7749000D+01 0.2280000D+01 0.3446000D+02
EXPONENTS  0.7749000D+01 0.2280000D+01 0.3446000D+02 0.7749000D+01 0.2280000D+01
EXPONENTS  0.7156000D+00 0.7156000D+00 0.7156000D+00 0.2140000D+00 0.2140000D+00
EXPONENTS  0.2140000D+00 0.5974000D-01 0.5974000D-01 0.5974000D-01 0.2314000D+01
EXPONENTS  0.2314000D+01 0.2314000D+01 0.2314000D+01 0.2314000D+01 0.2314000D+01
EXPONENTS  0.6450000D+00 0.6450000D+00 0.6450000D+00 0.6450000D+00 0.6450000D+00
EXPONENTS  0.6450000D+00 0.2140000D+00 0.2140000D+00 0.2140000D+00 0.2140000D+00
EXPONENTS  0.2140000D+00 0.2140000D+00 0.1428000D+01 0.1428000D+01 0.1428000D+01
EXPONENTS  0.1428000D+01 0.1428000D+01 0.1428000D+01 0.1428000D+01 0.1428000D+01
EXPONENTS  0.1428000D+01 0.1428000D+01 0.5000000D+00 0.5000000D+00 0.5000000D+00
EXPONENTS  0.5000000D+00 0.5000000D+00 0.5000000D+00 0.5000000D+00 0.5000000D+00
EXPONENTS  0.5000000D+00 0.5000000D+00 0.3387000D+02 0.5095000D+01 0.1159000D+01
EXPONENTS  0.3258000D+00 0.1027000D+00 0.2526000D-01 0.1407000D+01 0.1407000D+01
EXPONENTS  0.1407000D+01 0.3880000D+00 0.3880000D+00 0.3880000D+00 0.1020000D+00
EXPONENTS  0.1020000D+00 0.1020000D+00 0.1057000D+01 0.1057000D+01 0.1057000D+01
EXPONENTS  0.1057000D+01 0.1057000D+01 0.1057000D+01 0.2470000D+00 0.2470000D+00
EXPONENTS  0.2470000D+00 0.2470000D+00 0.2470000D+00 0.2470000D+00 0.3387000D+02
EXPONENTS  0.5095000D+01 0.1159000D+01 0.3258000D+00 0.1027000D+00 0.2526000D-01
EXPONENTS  0.1407000D+01 0.1407000D+01 0.1407000D+01 0.3880000D+00 0.3880000D+00
EXPONENTS  0.3880000D+00 0.1020000D+00 0.1020000D+00 0.1020000D+00 0.1057000D+01
EXPONENTS  0.1057000D+01 0.1057000D+01 0.1057000D+01 0.1057000D+01 0.1057000D+01
EXPONENTS  0.2470000D+00 0.2470000D+00 0.2470000D+00 0.2470000D+00 0.2470000D+00
EXPONENTS  0.2470000D+00
MO    1     MO 0.0        OCC NO =    2.0000000  ORB. ENERGY =    0.000000
 -0.12782297D-01 -0.23824100D-01 -0.40397110D-01 -0.61136730D-01 -0.76263251D-01
 -0.65445216D-01 -0.25062041D-01  0.52620797D-04  0.56458662D-03  0.20811726D-02
  0.60852265D-02  0.73329939D-02 -0.88333682D-02 -0.87987898D-02 -0.18526543D-01
 -0.38507795D-02 -0.48733618D-01 -0.47255217D-01 -0.31878090D-01  0.13216631D+01
  0.12815686D+01  0.86453863D+00 -0.68258622D+00 -0.66187902D+00 -0.44649968D+00
 -0.10982338D-01  0.27463672D+00 -0.15464435D+00 -0.17886233D-02  0.26917535D-01
 -0.21847240D-01 -0.56369557D-04  0.27893969D-03 -0.41867076D-03 -0.18705665D-01
  0.64016438D-03  0.18065501D-01  0.17383606D-03  0.21009093D-02 -0.12072533D+00
 -0.40046578D-02 -0.12432191D-02  0.52478769D-02 -0.54850870D-04  0.50457049D-03
 -0.17121217D-01 -0.45425255D-04 -0.35193134D-03  0.39735660D-03 -0.13020996D-04
  0.31059340D-04  0.49873423D-03  0.29194669D-03  0.63389609D-02 -0.10737471D-02
 -0.58715268D-03 -0.14029046D-01  0.91845238D-02 -0.28868739D-03 -0.49878364D-02
 -0.59632826D-02 -0.59449376D-04  0.73904544D-05 -0.63360592D-04 -0.11825822D-04
 -0.11207629D-04 -0.75920278D-03  0.58200272D-03 -0.10963734D-04  0.94928456D-03
 -0.54652526D-03  0.48826509D-04 -0.20491590D-01 -0.36957427D-01 -0.54493705D-01
 -0.36857842D-01 -0.28277054D-02  0.14742673D-03 -0.81385586D-03 -0.46873929D-02
 -0.31126991D-01 -0.43821379D-03  0.43080883D-03 -0.11382153D-01 -0.63669598D-04
  0.50495507D-03 -0.64638368D-03  0.46711636D-02  0.22698100D-02 -0.69409736D-02
 -0.37680575D-03 -0.32048029D-03 -0.15377810D-01 -0.89963318D-04  0.39500228D-03
 -0.30503896D-03 -0.40358897D-04 -0.30786687D-04 -0.31141161D-03  0.45516667D-01
  0.82091184D-01  0.12104340D+00  0.83848116D-01  0.12471807D-01 -0.52722632D-04
 -0.61516056D-03 -0.27907755D-01  0.20062873D-01 -0.33385474D-03 -0.12193410D-01
  0.84663125D-02 -0.52666585D-04 -0.56528648D-04 -0.24008165D-03 -0.73939925D-02
  0.66885640D-02  0.70542848D-03  0.31688661D-03 -0.21434835D-03 -0.19533474D-01
 -0.30168196D-03  0.16980955D-03  0.13187241D-03  0.31579222D-04 -0.16468927D-04
 -0.74182462D-03
MO    2     MO 0.0        OCC NO =    2.0000000  ORB. ENERGY =    0.000000
  0.63615692D-02  0.11856919D-01  0.20105073D-01  0.30426889D-01  0.37955146D-01
  0.32571162D-01  0.12473025D-01 -0.38005985D-03 -0.40777928D-02 -0.15031512D-01
 -0.43951260D-01 -0.52963405D-01  0.63800034D-01  0.39014973D-01  0.72258534D-01
  0.95560901D-02 -0.25138225D+00 -0.24375622D+00 -0.16443651D+00  0.64703264D+00
  0.62740401D+00  0.42324304D+00  0.14470210D+01  0.14031236D+01  0.94653891D+00
 -0.56650112D-01  0.12565288D+00  0.30647151D+00 -0.92262420D-02  0.78950513D-02
  0.34342875D-01 -0.29077066D-03  0.38276654D-04  0.63867920D-03  0.35910468D-01
  0.65194108D-02 -0.42429879D-01  0.89669721D-03  0.10837105D-01 -0.69422208D-01
  0.31515607D-02  0.76742866D-02 -0.10825847D-01 -0.28293683D-03  0.26027221D-02
 -0.31647658D-02 -0.10955130D-02  0.13997791D-02 -0.30426605D-03 -0.67166106D-04
  0.16021315D-03  0.19606921D-02  0.15059464D-02  0.23528590D-02  0.22667294D-02
 -0.30287052D-02 -0.50088192D-02 -0.15643148D-01 -0.14891340D-02 -0.20497579D-02
  0.88429596D-02 -0.30665727D-03  0.38122125D-04  0.41061118D-03  0.63401474D-03
 -0.57812228D-04  0.73558483D-04  0.31583357D-03 -0.56554146D-04 -0.13053920D-02
 -0.22178778D-02  0.25186141D-03 -0.42347075D-01 -0.76374695D-01 -0.11261444D+00
 -0.90760366D-01 -0.11512815D-01 -0.46191250D-04 -0.41981065D-02 -0.38315726D-01
 -0.18254988D-01 -0.22604349D-02 -0.15097867D-01 -0.52026001D-02 -0.32842640D-03
  0.14244970D-03  0.11253938D-02  0.77195756D-02 -0.82490163D-02  0.52944069D-03
 -0.19436742D-02 -0.16531310D-02 -0.20623825D-01 -0.23734351D-03  0.65640211D-04
  0.17170330D-03 -0.20818299D-03 -0.15880673D-03  0.11190087D-02 -0.42542749D-02
 -0.76727600D-02 -0.11313480D-01 -0.15204865D-01 -0.49073695D-02 -0.18037475D-03
 -0.31731780D-02  0.85049136D-02  0.14769875D-01 -0.17221203D-02  0.69668160D-02
  0.56252645D-02 -0.27166965D-03  0.37030675D-03  0.97710853D-03 -0.18401994D-03
 -0.41906891D-02  0.43747091D-02  0.16345938D-02 -0.11056715D-02 -0.51146182D-02
  0.12039208D-03 -0.22882181D-03  0.10842972D-03  0.16289486D-03 -0.84951538D-04
 -0.57016124D-03
MO    3     MO 0.0        OCC NO =    2.0000000  ORB. ENERGY =    0.000000
 -0.43651961D-01 -0.81360078D-01 -0.13795745D+00 -0.20878392D+00 -0.26044149D+00
 -0.22349754D+00 -0.85587686D-01  0.16103724D-03  0.17278239D-02  0.63690843D-02
  0.18622829D-01  0.22441414D-01 -0.27033062D-01 -0.21969945D-01 -0.11142998D-03
  0.64357408D-03  0.17452300D+01  0.16922860D+01  0.11416062D+01  0.14013400D+00
  0.13588284D+00  0.91665763D-01  0.20319328D+00  0.19702913D+00  0.13291469D+00
  0.39329537D+00  0.27176642D-01  0.42889653D-01  0.64053506D-01  0.17895555D-02
  0.39846846D-02  0.20186854D-02  0.13593456D-04  0.75718770D-04  0.82205143D-02
 -0.19716568D-02 -0.62488575D-02 -0.62253516D-02 -0.75236975D-01 -0.15693714D-01
  0.10071411D-02  0.61468938D-03 -0.16218305D-02  0.19642987D-02 -0.18069489D-01
 -0.54079262D-03 -0.18962441D-03  0.22484035D-03 -0.35215939D-04  0.46630302D-03
 -0.11122854D-02  0.39620994D-03 -0.10455085D-01  0.42413859D-03  0.13834794D-04
  0.21026891D-01 -0.11114254D-02 -0.30818993D-02  0.10338364D-01 -0.16099040D-03
  0.30403950D-02  0.21289787D-02 -0.26466418D-03  0.86800980D-04  0.15722316D-03
  0.40136340D-03  0.73011104D-04  0.11634575D-03  0.39262912D-03 -0.33341404D-03
 -0.58801523D-03 -0.17485566D-02 -0.10110484D-01 -0.18234674D-01 -0.26887017D-01
 -0.17002063D-01 -0.13393550D-02  0.11356765D-04  0.29145500D-01 -0.90561504D-02
 -0.66811281D-02  0.15693148D-01 -0.23188337D-02 -0.13904859D-02  0.22801117D-02
  0.11030434D-03  0.18343301D-03  0.15738827D-02 -0.12819616D-02 -0.29192117D-03
  0.13494026D-01  0.11476920D-01 -0.44825647D-02 -0.70141963D-04  0.44604365D-04
  0.25537598D-04  0.14453177D-02  0.11025212D-02  0.24128535D-03 -0.16152188D-02
 -0.29131137D-02 -0.42953844D-02 -0.14219718D-02  0.17105130D-05 -0.19206353D-04
  0.22029899D-01  0.28091930D-02  0.90920534D-03  0.11955880D-01  0.79887586D-03
  0.74599340D-03  0.18860760D-02 -0.17450578D-05  0.14751499D-03 -0.70316540D-04
 -0.49823077D-03  0.56854731D-03 -0.11348224D-01  0.76761626D-02 -0.83236138D-03
  0.29352715D-05 -0.10015252D-04  0.70799810D-05 -0.11309032D-02  0.58977901D-03
 -0.11345370D-03
MO    4     MO 0.0        OCC NO =    2.0000000  ORB. ENERGY =    0.000000
  0.33272121D+00  0.62013763D+00  0.10515305D+01  0.15913796D+01  0.19851206D+01
  0.17035288D+01  0.65236103D+00 -0.95050712D-03 -0.10198318D-01 -0.37592919D-01
 -0.10991949D+00 -0.13245833D+00  0.15956010D+00  0.13733167D+00  0.44754903D-01
  0.27670081D-02  0.30297738D+00  0.29378614D+00  0.19818640D+00 -0.39008529D-01
 -0.37825151D-01 -0.25516624D-01 -0.85314759D-01 -0.82726618D-01 -0.55806888D-01
  0.68277305D-01 -0.57369073D-02 -0.18801574D-01  0.11119889D-01  0.36294645D-03
  0.90976807D-03  0.35045009D-03 -0.77180614D-05  0.65602338D-05 -0.17507536D-01
  0.13852593D-01  0.36549434D-02 -0.10807405D-02 -0.13061374D-01  0.11156149D-01
 -0.30529359D-02  0.19074071D-02  0.11455287D-02  0.34100839D-03 -0.31369196D-02
 -0.15412843D-02  0.15372933D-03 -0.17830439D-03  0.24575057D-04  0.80951660D-04
 -0.19309622D-03 -0.41753157D-03 -0.18150354D-02  0.50504524D-03  0.13777857D-02
  0.36503339D-02  0.26269957D-03  0.55852219D-02  0.17947723D-02 -0.17778353D-02
 -0.97185791D-02  0.36959735D-03 -0.45946527D-04 -0.14901896D-03 -0.34341211D-03
  0.69677940D-04 -0.39524076D-03 -0.33200006D-03  0.68161642D-04  0.84229765D-03
  0.13622364D-02 -0.30355488D-03  0.15722365D-01  0.28355933D-01  0.41810807D-01
  0.12698191D-01 -0.19914824D-02 -0.67957111D-04  0.50597498D-02  0.15087832D-01
  0.13739656D-01  0.27243794D-02  0.30869122D-03  0.95634903D-03  0.39583451D-03
 -0.38693199D-03 -0.23188675D-03 -0.10189160D-02  0.44530064D-03  0.57361535D-03
  0.23426050D-02  0.19924291D-02  0.34464788D-02  0.16573398D-03 -0.11797243D-03
 -0.47761549D-04  0.25091166D-03  0.19140113D-03 -0.45613332D-03  0.10722882D-01
  0.19339159D-01  0.28515578D-01  0.81923353D-02 -0.13796761D-02 -0.31114589D-04
  0.38244592D-02 -0.11042707D-01  0.81306037D-02  0.20755781D-02 -0.82939977D-03
  0.14262291D-02  0.32742867D-03  0.22271974D-03 -0.69860273D-04 -0.68127276D-03
  0.34415923D-03  0.33711353D-03 -0.19700872D-02  0.13326058D-02 -0.17869735D-02
  0.18954344D-04 -0.72074150D-04  0.53119807D-04 -0.19632833D-03  0.10238748D-03
  0.40977734D-04
MO    5     MO 0.0        OCC NO =    2.0000000  ORB. ENERGY =    0.000000
  0.38283019D+00  0.71353253D+00  0.12098947D+01  0.18310469D+01  0.22840867D+01
  0.19600862D+01  0.75060889D+00  0.13928858D-02  0.14944750D-01  0.55089164D-01
  0.16107748D+00  0.19410620D+00 -0.23382149D+00 -0.98962840D-01 -0.63077461D-01
 -0.40964359D-02 -0.61771589D-01 -0.59897663D-01 -0.40406610D-01  0.92039326D-01
  0.89247185D-01  0.60205624D-01 -0.27843442D-01 -0.26998773D-01 -0.18213213D-01
 -0.13920503D-01  0.11662226D-01 -0.56540580D-02 -0.22671435D-02 -0.10249722D-02
 -0.54825170D-02 -0.71450413D-04 -0.29633417D-04 -0.97374881D-04  0.15001093D-01
 -0.14796998D-01 -0.20409443D-03  0.22034337D-03  0.26629771D-02 -0.10914186D-01
  0.38146575D-02 -0.35277915D-02 -0.28686599D-03 -0.69525423D-04  0.63956099D-03
  0.35479581D-02 -0.10936147D-03  0.59043307D-04  0.50318166D-04 -0.16504575D-04
  0.39368814D-04  0.77360091D-03  0.37005278D-03 -0.11576220D-03 -0.12288038D-02
 -0.74423684D-03  0.13390220D-02 -0.32638414D-02 -0.36592151D-03 -0.99173538D-03
  0.69502529D-02 -0.75354193D-04  0.93676631D-05  0.10046252D-03  0.18682928D-03
 -0.14206067D-04  0.42381235D-03 -0.85742656D-04 -0.13896922D-04 -0.72519991D-03
 -0.47474518D-03  0.61889332D-04 -0.20036182D-01 -0.36136080D-01 -0.53282629D-01
 -0.19644716D-01  0.14742238D-02  0.59213671D-04 -0.10315912D-02 -0.22234597D-01
 -0.22524748D-01 -0.55545152D-03 -0.28982723D-02 -0.44426712D-02 -0.80703474D-04
  0.24051815D-03 -0.24720908D-04  0.43688678D-02 -0.22560785D-02 -0.21127893D-02
 -0.47761466D-03 -0.40622013D-03 -0.13679774D-01 -0.13197051D-03  0.10281790D-03
  0.29152605D-04 -0.51156333D-04 -0.39023217D-04  0.27160797D-03 -0.11637721D-01
 -0.20989108D-01 -0.30948428D-01 -0.42667598D-02  0.34126352D-02  0.80390578D-04
 -0.77973783D-03  0.12611930D-01 -0.10368188D-01 -0.42317272D-03 -0.22942800D-03
 -0.14997259D-02 -0.66756765D-04 -0.41928956D-03  0.38105046D-04  0.12540811D-02
 -0.61108820D-03 -0.64299293D-03  0.40166502D-03 -0.27169414D-03  0.39433420D-02
 -0.76036873D-04  0.16076242D-03 -0.84725549D-04  0.40027784D-04 -0.20874949D-04
 -0.98868406D-04
END DATA
 TOTAL ENERGY =    -76.457721968793 THE VIRIAL(-V/T)=   2.00447154
