 43
GAUSSIAN              5 MOL ORBITALS    126 PRIMITIVES        3 NUCLEI   B3LYP   B3LYP   B3LYP
  O    1    (CENTRE  1)   0.00000000  0.00000000  0.00815606  CHARGE =  8.0
  H    2    (CENTRE  2)   0.09448631 -1.53704465 -1.09730160  CHARGE =  1.0
  H    3    (CENTRE  3)   0.00000000  1.44255835 -1.09730160  CHARGE =  1.0
CENTRE ASSIGNMENTS    1  1  1  1  1  1  1  1  1  1  1  1  1  1  1  1  1  1  1  1
CENTRE ASSIGNMENTS    1  1  1  1  1  1  1  1  1  1  1  1  1  1  1  1  1  1  1  1
CENTRE ASSIGNMENTS    1  1  1  1  1  1  1  1  1  1  1  1  1  1  1  1  1  1  1  1
CENTRE ASSIGNMENTS    1  1  1  1  1  1  1  1  1  1  1  1  2  2  2  2  2  2  2  2
CENTRE ASSIGNMENTS    2  2  2  2  2  2  2  2  2  2  2  2  2  2  2  2  2  2  2  3
CENTRE ASSIGNMENTS    3  3  3  3  3  3  3  3  3  3  3  3  3  3  3  3  3  3  3  3
CENTRE ASSIGNMENTS    3  3  3  3  3  3
TYPE ASSIGNMENTS      1  1  1  1  1  1  1  1  1  1  1  1  1  1  1  1  2  2  2  3
TYPE ASSIGNMENTS      3  3  4  4  4  2  3  4  2  3  4  2  3  4  5  6  7  8  9 10
TYPE ASSIGNMENTS      5  6  7  8  9 10  5  6  7  8  9 10 11 12 13 17 14 15 18 19
TYPE ASSIGNMENTS     16 20 11 12 13 17 14 15 18 19 16 20  1  1  1  1  1  1  2  3
TYPE ASSIGNMENTS      4  2  3  4  2  3  4  5  6  7  8  9 10  5  6  7  8  9 10  1
TYPE ASSIGNMENTS      1  1  1  1  1  2  3  4  2  3  4  2  3  4  5  6  7  8  9 10
TYPE ASSIGNMENTS      5  6  7  8  9 10
EXPONENTS  0.1533000D+05 0.2299000D+04 0.5224000D+03 0.1473000D+03 0.4755000D+02
EXPONENTS  0.1676000D+02 0.6207000D+01 0.5224000D+03 0.1473000D+03 0.4755000D+02
EXPONENTS  0.1676000D+02 0.6207000D+01 0.6882000D+00 0.1752000D+01 0.2384000D+00
EXPONENTS  0.7376000D-01 0.3446000D+02 0.7749000D+01 0.2280000D+01 0.3446000D+02
EXPONENTS  0.7749000D+01 0.2280000D+01 0.3446000D+02 0.7749000D+01 0.2280000D+01
EXPONENTS  0.7156000D+00 0.7156000D+00 0.7156000D+00 0.2140000D+00 0.2140000D+00
EXPONENTS  0.2140000D+00 0.5974000D-01 0.5974000D-01 0.5974000D-01 0.2314000D+01
EXPONENTS  0.2314000D+01 0.2314000D+01 0.2314000D+01 0.2314000D+01 0.2314000D+01
EXPONENTS  0.6450000D+00 0.6450000D+00 0.6450000D+00 0.6450000D+00 0.6450000D+00
EXPONENTS  0.6450000D+00 0.2140000D+00 0.2140000D+00 0.2140000D+00 0.2140000D+00
EXPONENTS  0.2140000D+00 0.2140000D+00 0.1428000D+01 0.1428000D+01 0.1428000D+01
EXPONENTS  0.1428000D+01 0.1428000D+01 0.1428000D+01 0.1428000D+01 0.1428000D+01
EXPONENTS  0.1428000D+01 0.1428000D+01 0.5000000D+00 0.5000000D+00 0.5000000D+00
EXPONENTS  0.5000000D+00 0.5000000D+00 0.5000000D+00 0.5000000D+00 0.5000000D+00
EXPONENTS  0.5000000D+00 0.5000000D+00 0.3387000D+02 0.5095000D+01 0.1159000D+01
EXPONENTS  0.3258000D+00 0.1027000D+00 0.2526000D-01 0.1407000D+01 0.1407000D+01
EXPONENTS  0.1407000D+01 0.3880000D+00 0.3880000D+00 0.3880000D+00 0.1020000D+00
EXPONENTS  0.1020000D+00 0.1020000D+00 0.1057000D+01 0.1057000D+01 0.1057000D+01
EXPONENTS  0.1057000D+01 0.1057000D+01 0.1057000D+01 0.2470000D+00 0.2470000D+00
EXPONENTS  0.2470000D+00 0.2470000D+00 0.2470000D+00 0.2470000D+00 0.3387000D+02
EXPONENTS  0.5095000D+01 0.1159000D+01 0.3258000D+00 0.1027000D+00 0.2526000D-01
EXPONENTS  0.1407000D+01 0.1407000D+01 0.1407000D+01 0.3880000D+00 0.3880000D+00
EXPONENTS  0.3880000D+00 0.1020000D+00 0.1020000D+00 0.1020000D+00 0.1057000D+01
EXPONENTS  0.1057000D+01 0.1057000D+01 0.1057000D+01 0.1057000D+01 0.1057000D+01
EXPONENTS  0.2470000D+00 0.2470000D+00 0.2470000D+00 0.2470000D+00 0.2470000D+00
EXPONENTS  0.2470000D+00
MO    1     MO 0.0        OCC NO =    2.0000000  ORB. ENERGY =    0.000000
 -0.32958043D+00 -0.61428373D+00 -0.10416044D+01 -0.15763575D+01 -0.19663817D+01
 -0.16874480D+01 -0.64620295D+00 -0.10656350D-02 -0.11433564D-01 -0.42146270D-01
 -0.12323322D+00 -0.14850202D+00  0.17888642D+00  0.70630081D-01  0.28981672D-01
 -0.70290841D-03 -0.42784044D+00 -0.41486131D+00 -0.27986299D+00  0.25066268D+00
  0.24305848D+00  0.16396582D+00 -0.66404898D+00 -0.64390414D+00 -0.43437393D+00
 -0.96507900D-01  0.49495489D-01 -0.14804009D+00 -0.16211623D-01  0.36263252D-02
 -0.15833845D-01 -0.53264175D-03  0.20796390D-04 -0.32524334D-03 -0.29979615D-01
  0.13140164D-01  0.16839451D-01 -0.22156201D-02  0.14628338D-01 -0.26490847D-01
 -0.63021904D-02  0.93140904D-03  0.53707814D-02 -0.26852967D-03  0.37833431D-02
 -0.18154206D-02  0.24225208D-03 -0.53081424D-03  0.28856216D-03  0.69220464D-04
  0.31305804D-03  0.49808427D-03  0.22495122D-02  0.76965462D-03  0.70509816D-03
 -0.53479425D-02 -0.14794416D-02  0.10884761D-01 -0.14005940D-02 -0.82952227D-03
 -0.13000056D-01  0.16777699D-02  0.98069044D-04  0.89288805D-04 -0.31561745D-03
 -0.22296130D-03  0.42827857D-05  0.47043579D-03 -0.71245836D-04 -0.27214920D-03
  0.47641656D-03 -0.11724660D-03  0.15726895D-01  0.28364103D-01  0.41822854D-01
  0.17967243D-01  0.76100093D-03  0.20873897D-04 -0.63806096D-02  0.17545772D-01
  0.41049290D-02 -0.32251298D-02  0.45096882D-02 -0.52450206D-03 -0.47262430D-03
 -0.44786840D-04 -0.46500779D-03 -0.15145588D-02  0.30648582D-02 -0.15502995D-02
 -0.33846485D-02 -0.21802829D-02  0.36819505D-02 -0.46609598D-04  0.11028886D-03
 -0.63679261D-04 -0.29708831D-03 -0.15984941D-03 -0.23306509D-03  0.30798219D-01
  0.55545856D-01  0.81902332D-01  0.45778121D-01  0.36749680D-02 -0.26642250D-04
 -0.59832125D-02 -0.28599808D-01  0.16079219D-01 -0.32917887D-02 -0.83173156D-02
  0.37625426D-02 -0.51218303D-03  0.12203365D-03 -0.43860373D-03 -0.50053958D-02
  0.53961259D-02 -0.39073010D-03  0.30229151D-02 -0.22639648D-02 -0.13911051D-01
 -0.20961754D-04  0.67111252D-04 -0.46149498D-04  0.31407246D-03 -0.21115643D-03
  0.13516111D-03
MO    2     MO 0.0        OCC NO =    2.0000000  ORB. ENERGY =    0.000000
  0.36534592D+00  0.68094472D+00  0.11546375D+01  0.17474210D+01  0.21797700D+01
  0.18705669D+01  0.71632777D+00 -0.95292821D-04 -0.10224294D-02 -0.37688674D-02
 -0.11019947D-01 -0.13279572D-01  0.15996652D-01  0.53152362D-01 -0.13783021D-01
 -0.31684190D-02 -0.54575226D+00 -0.52919612D+00 -0.35699257D+00  0.60638817D+00
  0.58799254D+00  0.39665630D+00 -0.62679941D+00 -0.60778458D+00 -0.41000789D+00
 -0.12322861D+00  0.12635673D+00 -0.13492399D+00 -0.20397332D-01  0.11848190D-01
 -0.16076515D-01 -0.66327712D-03  0.11430952D-03 -0.33614492D-03 -0.20527253D-01
  0.43653940D-02  0.16161859D-01  0.17297652D-03  0.20667775D-01 -0.59387723D-01
 -0.25161013D-02 -0.23985004D-02  0.49146017D-02  0.46849955D-03  0.54357999D-02
 -0.80237221D-02  0.35446982D-03 -0.61065467D-03  0.25618485D-03  0.93227244D-04
  0.40487726D-03  0.44410457D-03  0.31254501D-02  0.26125841D-02 -0.41506477D-04
 -0.73662446D-02 -0.63017446D-02  0.85329179D-02 -0.20101058D-02 -0.15360078D-02
 -0.84083984D-02  0.93989295D-03  0.16016789D-03  0.11100874D-03 -0.40340658D-03
 -0.32734686D-03 -0.34570113D-03 -0.87133064D-04 -0.15315681D-03  0.12674920D-04
  0.12973528D-02 -0.29088616D-03 -0.39388428D-02 -0.71038652D-02 -0.10474645D-01
 -0.64870506D-02 -0.21078373D-04  0.10616105D-03 -0.66673663D-02  0.22470302D-02
 -0.93389685D-02 -0.37076267D-02  0.16583357D-02 -0.43024484D-02 -0.59643587D-03
  0.21915033D-03 -0.47524721D-03  0.18803873D-02  0.56701685D-03 -0.24474042D-02
 -0.32876629D-02 -0.19919496D-02 -0.62896190D-02 -0.30078830D-04  0.17561438D-03
 -0.14553555D-03 -0.36143312D-03 -0.18484879D-03 -0.43656910D-03  0.28715982D-01
  0.51790456D-01  0.76364997D-01  0.52362446D-01  0.65386054D-02 -0.20944408D-04
 -0.75698208D-02 -0.20918792D-01  0.13200189D-01 -0.41297909D-02 -0.78894829D-02
  0.43842277D-02 -0.63679454D-03  0.10391043D-03 -0.40222640D-03 -0.39520593D-02
  0.38876005D-02  0.64458879D-04  0.37840292D-02 -0.28607597D-02 -0.10741262D-01
 -0.45879133D-04  0.27545884D-04  0.18333249D-04  0.39693583D-03 -0.26340973D-03
  0.23270215D-05
MO    3     MO 0.0        OCC NO =    2.0000000  ORB. ENERGY =    0.000000
 -0.80736304D-01 -0.15047920D+00 -0.25515862D+00 -0.38615544D+00 -0.48169848D+00
 -0.41336896D+00 -0.15829835D+00  0.21798633D-03  0.23388503D-02  0.86214425D-02
  0.25208592D-01  0.30377579D-01 -0.36593013D-01 -0.31312720D-01 -0.11876996D-01
 -0.47813777D-03  0.92888459D+00  0.90070559D+00  0.60761067D+00  0.12066984D+01
  0.11700916D+01  0.78933686D+00  0.94946826D-01  0.92066483D-01  0.62107506D-01
  0.21034193D+00  0.25388113D+00  0.23716456D-01  0.35388417D-01  0.25639551D-01
  0.38830525D-02  0.11705332D-02  0.29555095D-03  0.98105872D-04  0.59199016D-02
 -0.34966398D-02 -0.24232617D-02  0.63615625D-02 -0.34194391D-01 -0.10906415D+00
  0.18866663D-02 -0.10303504D-02 -0.85631596D-03  0.61756152D-03 -0.94349119D-02
 -0.16533886D-01  0.14990686D-03 -0.57074069D-04 -0.92832794D-04 -0.93087307D-04
 -0.71567370D-03  0.42863559D-03 -0.51730284D-02  0.61359387D-02 -0.24097623D-03
  0.10751609D-01 -0.14520534D-01 -0.31097145D-02  0.47674765D-02 -0.38872819D-02
  0.38326432D-02 -0.17824483D-02 -0.21638909D-03  0.11038249D-03  0.80605477D-05
  0.34464295D-03 -0.93838764D-03 -0.22462680D-03  0.30452433D-03  0.60724016D-03
  0.20044516D-03  0.14813682D-03 -0.33417448D-01 -0.60269743D-01 -0.88867701D-01
 -0.57403584D-01 -0.68672456D-02  0.11051675D-03  0.13698740D-01 -0.18371030D-01
 -0.20362512D-01  0.72602068D-02 -0.61068953D-02 -0.79577786D-02  0.10641580D-02
  0.27865654D-03 -0.56678588D-04  0.48797057D-02 -0.30446830D-02 -0.18350227D-02
  0.75141731D-02  0.55213658D-02 -0.15091535D-01  0.75367480D-04  0.78267042D-04
 -0.15363452D-03  0.67007677D-03  0.40522518D-03 -0.63165831D-03  0.26478769D-01
  0.47755550D-01  0.70415531D-01  0.51576519D-01  0.64699617D-02 -0.94451988D-04
  0.13049181D-01 -0.12439252D-01  0.20710516D-01  0.71651801D-02 -0.49026739D-02
  0.89407334D-02  0.11234682D-02  0.30113966D-03  0.23783533D-03 -0.53193202D-02
  0.21869088D-02  0.31324114D-02 -0.65612868D-02  0.48478361D-02 -0.15915288D-01
 -0.16288912D-04 -0.21434044D-03  0.23062936D-03 -0.67447447D-03  0.44779874D-03
 -0.46327053D-03
MO    4     MO 0.0        OCC NO =    2.0000000  ORB. ENERGY =    0.000000
  0.96793128D-01  0.18040648D+00  0.30590453D+00  0.46295398D+00  0.57749860D+00
  0.49557971D+00  0.18978070D+00 -0.43463481D-03 -0.46633463D-02 -0.17189972D-01
 -0.50262471D-01 -0.60568722D-01  0.72961444D-01  0.55632501D-01  0.29729911D-02
 -0.22831702D-02  0.13641083D+01  0.13227262D+01  0.89230328D+00 -0.48106879D+00
 -0.46647491D+00 -0.31468122D+00 -0.56965014D+00 -0.55236901D+00 -0.37262487D+00
  0.30781771D+00 -0.10171961D+00 -0.12569380D+00  0.50544774D-01 -0.10048232D-01
 -0.14525916D-01  0.16291298D-02 -0.72199432D-04 -0.26702597D-03 -0.20694500D-01
  0.75135681D-02  0.13180931D-01 -0.19369734D-02 -0.56567387D-01  0.44250988D-01
 -0.35027920D-02 -0.77348271D-03  0.42762747D-02 -0.83163482D-03 -0.14789216D-01
  0.75153573D-02  0.25310284D-03 -0.49749364D-03  0.24439080D-03 -0.72824993D-04
 -0.98437848D-03 -0.74126965D-05 -0.83310176D-02 -0.22334353D-02  0.64452681D-03
  0.17848084D-01  0.44217497D-02  0.77053111D-02  0.71449692D-02  0.22785563D-02
 -0.96388915D-02  0.67259614D-03 -0.36678188D-03  0.34702883D-04 -0.27174661D-03
  0.57084136D-03  0.39166513D-03  0.12794291D-03  0.52950429D-03 -0.49577378D-03
  0.68729692D-03  0.45309159D-03  0.29132660D-01  0.52541952D-01  0.77473078D-01
  0.49007747D-01  0.63038451D-02 -0.14070775D-04  0.15533079D-01  0.21830558D-01
  0.12684721D-01  0.87552170D-02  0.81195662D-02  0.44072799D-02  0.14717714D-02
  0.15440001D-04 -0.26810268D-03 -0.44404024D-02  0.44763002D-02 -0.35897717D-04
  0.76964001D-02  0.54076768D-02  0.10869377D-01 -0.19691283D-03  0.14175098D-03
  0.55161852D-04  0.84520320D-03  0.46933342D-03  0.29543941D-03  0.34067080D-02
  0.61441382D-02  0.90595281D-02  0.23311547D-02  0.12185858D-03  0.68208464D-04
  0.18888089D-01 -0.86040051D-02 -0.42360109D-02  0.10282622D-01 -0.27802694D-02
 -0.29631092D-02  0.15814761D-02 -0.10725501D-03 -0.44404593D-03  0.46690081D-03
  0.17663141D-02 -0.22332149D-02 -0.93767150D-02  0.70364075D-02  0.21858292D-02
 -0.23103386D-04  0.17242876D-03 -0.14932537D-03 -0.99155268D-03  0.61758392D-03
  0.37025190D-03
MO    5     MO 0.0        OCC NO =    2.0000000  ORB. ENERGY =    0.000000
  0.35354581D-01  0.65895127D-01  0.11173445D+00  0.16909820D+00  0.21093668D+00
  0.18101506D+00  0.69319150D-01 -0.12916159D-02 -0.13858191D-01 -0.51083903D-01
 -0.14936633D+00 -0.17999370D+00  0.21682148D+00  0.13805552D+00  0.10129645D+00
  0.11147862D-01  0.74800485D-01  0.72531309D-01  0.48929193D-01  0.11549393D+00
  0.11199026D+00  0.75547970D-01  0.11919356D+01  0.11557766D+01  0.77968005D+00
  0.17441412D-01  0.25287947D-01  0.25675208D+00  0.32286524D-02  0.31855765D-02
  0.35168305D-01  0.12534039D-03  0.44720089D-04  0.70182106D-03  0.15783432D-01
  0.14624693D-01 -0.30408125D-01  0.63799858D-03 -0.91407415D-03 -0.95565551D-02
  0.11599907D-03  0.85548489D-02 -0.86708480D-02 -0.48776804D-03 -0.55141320D-03
 -0.19364320D-02 -0.54089875D-03  0.10240697D-02 -0.48317096D-03 -0.10183076D-03
 -0.92952557D-04 -0.22009051D-03 -0.31204772D-03  0.65648809D-03  0.25848312D-02
  0.13948966D-02 -0.16323759D-02 -0.94718825D-02 -0.45875345D-03 -0.33708843D-03
  0.17173889D-02 -0.88409373D-03 -0.26550552D-04 -0.59503358D-04  0.27080943D-03
  0.86394095D-04 -0.50830868D-04 -0.13183061D-03 -0.67424398D-05  0.22934094D-03
 -0.68059768D-03  0.51477008D-04 -0.10160333D-01 -0.18324579D-01 -0.27019582D-01
 -0.37104936D-01 -0.10635462D-01 -0.16209495D-03  0.13640721D-02 -0.55715511D-02
  0.10335925D-01  0.11172284D-02 -0.93003123D-02  0.15539212D-02  0.13269694D-03
 -0.62107553D-03  0.67502624D-03  0.18025971D-02 -0.48776813D-02  0.30750843D-02
  0.13416148D-02  0.54457693D-03 -0.18689645D-02  0.26316766D-03 -0.39773642D-03
  0.13456876D-03  0.12615904D-03  0.58459452D-04  0.14830308D-04 -0.45788927D-02
 -0.82582215D-02 -0.12176743D-01 -0.29518633D-01 -0.92762941D-02 -0.17357041D-03
  0.10465169D-02  0.42980117D-02  0.14384366D-01  0.57213129D-03  0.89154704D-02
  0.28073865D-02  0.99605814D-04  0.62993631D-03  0.74401784D-03  0.11029184D-02
 -0.47718744D-02  0.36689560D-02 -0.51689292D-03  0.44958948D-03  0.53152156D-04
  0.18523085D-03 -0.38268076D-03  0.19744991D-03 -0.47791025D-04  0.65662870D-04
 -0.21854922D-03
END DATA
 TOTAL ENERGY =    -76.464583881771 THE VIRIAL(-V/T)=   2.00693803
