 52
GAUSSIAN              5 MOL ORBITALS    126 PRIMITIVES        3 NUCLEI   B3LYP   B3LYP   B3LYP
  O    1    (CENTRE  1)   0.00000000  0.00000000 -0.08633025  CHARGE =  8.0
  H    2    (CENTRE  2)   0.00000000 -1.44255835 -1.19178791  CHARGE =  1.0
  H    3    (CENTRE  3)   0.00000000  1.44255835 -1.09730160  CHARGE =  1.0
CENTRE ASSIGNMENTS    1  1  1  1  1  1  1  1  1  1  1  1  1  1  1  1  1  1  1  1
CENTRE ASSIGNMENTS    1  1  1  1  1  1  1  1  1  1  1  1  1  1  1  1  1  1  1  1
CENTRE ASSIGNMENTS    1  1  1  1  1  1  1  1  1  1  1  1  1  1  1  1  1  1  1  1
CENTRE ASSIGNMENTS    1  1  1  1  1  1  1  1  1  1  1  1  2  2  2  2  2  2  2  2
CENTRE ASSIGNMENTS    2  2  2  2  2  2  2  2  2  2  2  2  2  2  2  2  2  2  2  3
CENTRE ASSIGNMENTS    3  3  3  3  3  3  3  3  3  3  3  3  3  3  3  3  3  3  3  3
CENTRE ASSIGNMENTS    3  3  3  3  3  3
TYPE ASSIGNMENTS      1  1  1  1  1  1  1  1  1  1  1  1  1  1  1  1  2  2  2  3
TYPE ASSIGNMENTS      3  3  4  4  4  2  3  4  2  3  4  2  3  4  5  6  7  8  9 10
TYPE ASSIGNMENTS      5  6  7  8  9 10  5  6  7  8  9 10 11 12 13 17 14 15 18 19
TYPE ASSIGNMENTS     16 20 11 12 13 17 14 15 18 19 16 20  1  1  1  1  1  1  2  3
TYPE ASSIGNMENTS      4  2  3  4  2  3  4  5  6  7  8  9 10  5  6  7  8  9 10  1
TYPE ASSIGNMENTS      1  1  1  1  1  2  3  4  2  3  4  2  3  4  5  6  7  8  9 10
TYPE ASSIGNMENTS      5  6  7  8  9 10
EXPONENTS  0.1533000D+05 0.2299000D+04 0.5224000D+03 0.1473000D+03 0.4755000D+02
EXPONENTS  0.1676000D+02 0.6207000D+01 0.5224000D+03 0.1473000D+03 0.4755000D+02
EXPONENTS  0.1676000D+02 0.6207000D+01 0.6882000D+00 0.1752000D+01 0.2384000D+00
EXPONENTS  0.7376000D-01 0.3446000D+02 0.7749000D+01 0.2280000D+01 0.3446000D+02
EXPONENTS  0.7749000D+01 0.2280000D+01 0.3446000D+02 0.7749000D+01 0.2280000D+01
EXPONENTS  0.7156000D+00 0.7156000D+00 0.7156000D+00 0.2140000D+00 0.2140000D+00
EXPONENTS  0.2140000D+00 0.5974000D-01 0.5974000D-01 0.5974000D-01 0.2314000D+01
EXPONENTS  0.2314000D+01 0.2314000D+01 0.2314000D+01 0.2314000D+01 0.2314000D+01
EXPONENTS  0.6450000D+00 0.6450000D+00 0.6450000D+00 0.6450000D+00 0.6450000D+00
EXPONENTS  0.6450000D+00 0.2140000D+00 0.2140000D+00 0.2140000D+00 0.2140000D+00
EXPONENTS  0.2140000D+00 0.2140000D+00 0.1428000D+01 0.1428000D+01 0.1428000D+01
EXPONENTS  0.1428000D+01 0.1428000D+01 0.1428000D+01 0.1428000D+01 0.1428000D+01
EXPONENTS  0.1428000D+01 0.1428000D+01 0.5000000D+00 0.5000000D+00 0.5000000D+00
EXPONENTS  0.5000000D+00 0.5000000D+00 0.5000000D+00 0.5000000D+00 0.5000000D+00
EXPONENTS  0.5000000D+00 0.5000000D+00 0.3387000D+02 0.5095000D+01 0.1159000D+01
EXPONENTS  0.3258000D+00 0.1027000D+00 0.2526000D-01 0.1407000D+01 0.1407000D+01
EXPONENTS  0.1407000D+01 0.3880000D+00 0.3880000D+00 0.3880000D+00 0.1020000D+00
EXPONENTS  0.1020000D+00 0.1020000D+00 0.1057000D+01 0.1057000D+01 0.1057000D+01
EXPONENTS  0.1057000D+01 0.1057000D+01 0.1057000D+01 0.2470000D+00 0.2470000D+00
EXPONENTS  0.2470000D+00 0.2470000D+00 0.2470000D+00 0.2470000D+00 0.3387000D+02
EXPONENTS  0.5095000D+01 0.1159000D+01 0.3258000D+00 0.1027000D+00 0.2526000D-01
EXPONENTS  0.1407000D+01 0.1407000D+01 0.1407000D+01 0.3880000D+00 0.3880000D+00
EXPONENTS  0.3880000D+00 0.1020000D+00 0.1020000D+00 0.1020000D+00 0.1057000D+01
EXPONENTS  0.1057000D+01 0.1057000D+01 0.1057000D+01 0.1057000D+01 0.1057000D+01
EXPONENTS  0.2470000D+00 0.2470000D+00 0.2470000D+00 0.2470000D+00 0.2470000D+00
EXPONENTS  0.2470000D+00
MO    1     MO 0.0        OCC NO =    2.0000000  ORB. ENERGY =    0.000000
  0.18003543D-01  0.33555644D-01  0.56898310D-01  0.86109542D-01  0.10741487D+00
  0.92177936D-01  0.35299253D-01 -0.55375580D-03 -0.59414363D-02 -0.21901253D-01
 -0.64037979D-01 -0.77168879D-01  0.92958092D-01  0.59235712D-01 -0.20589584D-01
 -0.63189028D-02  0.12596465D+00  0.12214334D+00  0.82397174D-01  0.11383221D+00
  0.11037895D+00  0.74460987D-01 -0.14019377D+01 -0.13594080D+01 -0.91704861D+00
  0.28433489D-01  0.21210988D-01 -0.30461601D+00  0.46442666D-02  0.95762472D-03
 -0.35037587D-01  0.14753200D-03  0.11304863D-04 -0.71155657D-03 -0.46399857D-01
  0.10502094D-01  0.35897763D-01  0.29611150D-03 -0.51933625D-02 -0.11058124D-01
 -0.66266848D-02 -0.42396146D-02  0.10866299D-01  0.90149183D-05 -0.12973083D-02
 -0.13996045D-03  0.85446905D-03 -0.14337990D-02  0.57932999D-03 -0.59721264D-05
 -0.82094476D-04  0.37898052D-03 -0.75828350D-03  0.59545507D-03 -0.18324805D-03
  0.16619533D-02 -0.62154447D-03  0.18360001D-01  0.61289715D-03 -0.11648207D-02
 -0.17810257D-01  0.23576619D-04 -0.20253430D-04  0.47744154D-04 -0.71786236D-03
  0.24691819D-04  0.12089817D-03 -0.86847330D-05  0.36068472D-04 -0.26413063D-03
  0.21622718D-02  0.30234855D-04  0.29770390D-01  0.53692124D-01  0.79169006D-01
  0.51134843D-01  0.65393602D-02  0.76417600D-04  0.17436263D-02  0.29552773D-01
  0.46223666D-02  0.95084194D-03  0.11171851D-01 -0.34632306D-04  0.14708613D-03
  0.88171152D-04 -0.10176884D-02 -0.36822244D-02  0.66988709D-02 -0.30166464D-02
  0.86231851D-03  0.64304471D-03  0.80406712D-02 -0.89895753D-04  0.20421512D-03
 -0.11431936D-03  0.91915662D-04  0.57432785D-04 -0.53465056D-03  0.34900262D-01
  0.62944059D-01  0.92810978D-01  0.61460058D-01  0.70944859D-02  0.58910404D-04
  0.18706855D-02 -0.35817327D-01  0.73961661D-02  0.10175752D-02 -0.12685209D-01
  0.39137703D-03  0.15415463D-03  0.48538395D-04 -0.10808377D-02 -0.49738183D-02
  0.84309633D-02 -0.34571450D-02 -0.94708709D-03  0.64655605D-03 -0.10981532D-01
  0.19461355D-04  0.11330101D-03 -0.13276237D-03 -0.10181753D-03  0.59867536D-04
  0.77255514D-03
MO    2     MO 0.0        OCC NO =    2.0000000  ORB. ENERGY =    0.000000
  0.47755443D-01  0.89008294D-01  0.15092607D+00  0.22841056D+00  0.28492417D+00
  0.24450733D+00  0.93633316D-01  0.41266386D-04  0.44276124D-03  0.16321013D-02
  0.47721684D-02  0.57506950D-02 -0.69273215D-02  0.19292534D-02 -0.14771304D-02
  0.25311532D-03  0.10742435D+00  0.10416548D+00  0.70269421D-01  0.14598247D+01
  0.14155389D+01  0.95491417D+00  0.12079458D+00  0.11713010D+00  0.79015277D-01
  0.24248463D-01  0.29794373D+00  0.27919631D-01  0.39606932D-02  0.25793852D-01
  0.39937948D-02  0.12581728D-03  0.22415798D-03  0.71708542D-04  0.22464708D-02
  0.37086382D-02 -0.59551090D-02  0.25252788D-03 -0.44289696D-02 -0.13533986D+00
  0.85286484D-03  0.21455668D-03 -0.10674215D-02  0.76880439D-05 -0.11063620D-02
 -0.15716941D-01  0.90171596D-04 -0.68813416D-04 -0.21358180D-04 -0.50931099D-05
 -0.70011276D-04  0.15594456D-02 -0.64667439D-03  0.71258347D-02 -0.17216736D-03
  0.14173362D-02 -0.14081600D-01 -0.16434817D-02  0.52268695D-03 -0.72959040D-02
  0.21599838D-02  0.20106459D-04 -0.17272398D-04  0.12817169D-03 -0.43809292D-04
  0.21057516D-04 -0.65559619D-03 -0.20265170D-03  0.30759679D-04  0.27108113D-03
  0.33407957D-03  0.25784692D-04 -0.39892193D-01 -0.71947212D-01 -0.10608612D+00
 -0.73941974D-01 -0.90619929D-02  0.99815116D-04  0.14869880D-02 -0.24204361D-01
 -0.28078480D-01  0.81089083D-03 -0.90585185D-02 -0.11214889D-01  0.12543704D-03
  0.14882960D-03 -0.15001183D-03  0.77412539D-02 -0.47308923D-02 -0.30103616D-02
  0.73539685D-03  0.54839720D-03 -0.22707123D-01  0.51478951D-04  0.11118928D-03
 -0.16266823D-03  0.78386916D-04  0.48979454D-04 -0.61123289D-03  0.36474810D-01
  0.65783821D-01  0.96998206D-01  0.69197313D-01  0.78102534D-02 -0.10647807D-03
  0.15953458D-02 -0.23261590D-01  0.29165605D-01  0.86780181D-03 -0.80180716D-02
  0.11253992D-01  0.13146514D-03  0.26593171D-03  0.24146650D-03 -0.73496739D-02
  0.46526429D-02  0.26970309D-02 -0.80768864D-03  0.55139172D-03 -0.22122581D-01
  0.59397604D-04 -0.22386473D-03  0.16446712D-03 -0.86831366D-04  0.51055842D-04
 -0.42405930D-03
MO    3     MO 0.0        OCC NO =    2.0000000  ORB. ENERGY =    0.000000
  0.24852757D+00  0.46321452D+00  0.78544531D+00  0.11886880D+01  0.14827945D+01
  0.12724583D+01  0.48728393D+00 -0.19055482D-03 -0.20445282D-02 -0.75365158D-02
 -0.22036330D-01 -0.26554849D-01  0.31988130D-01  0.48859307D-01  0.21046187D-01
  0.24807833D-02  0.14677433D+01  0.14232173D+01  0.96009396D+00 -0.16374128D+00
 -0.15877396D+00 -0.10710797D+00  0.28462604D+00  0.27599151D+00  0.18618224D+00
  0.33130773D+00 -0.32912126D-01  0.61363367D-01  0.54115112D-01 -0.26836669D-02
  0.78466963D-02  0.17190466D-02 -0.21149130D-04  0.15595334D-03  0.38119570D-02
  0.35371927D-02 -0.73491497D-02  0.34502987D-02 -0.60513192D-01  0.14834135D-01
  0.33512620D-03  0.17235315D-02 -0.20586577D-02  0.10504206D-03 -0.15116270D-01
  0.16093251D-02 -0.16294376D-03  0.27022103D-03 -0.10727727D-03 -0.69587368D-04
 -0.95656692D-03 -0.22526820D-03 -0.88355386D-02 -0.72879097D-03  0.82822629D-03
  0.19365123D-01  0.13186169D-02 -0.18706672D-02  0.71414931D-02  0.86775606D-03
 -0.61401164D-03  0.27471536D-03 -0.23599348D-03 -0.31559130D-04 -0.38467131D-05
  0.28770970D-03  0.75407635D-04 -0.12867633D-03  0.42027075D-03  0.19269755D-04
  0.14021647D-03  0.35229729D-03  0.12542140D-02  0.22620265D-02  0.33353568D-02
 -0.15160838D-02 -0.12385461D-02 -0.42601715D-04  0.20316777D-01 -0.42797441D-03
  0.49498053D-02  0.11079234D-01 -0.16686461D-02  0.14303317D-02  0.17138514D-02
 -0.14135737D-03  0.19815643D-03  0.16966669D-03 -0.12815716D-02  0.11119049D-02
  0.10047757D-01  0.74927732D-02  0.41172714D-03  0.40934466D-04 -0.87989544D-04
  0.47055078D-04  0.10710036D-02  0.66920827D-03  0.11784425D-03 -0.69237511D-02
 -0.12487270D-01 -0.18412473D-01 -0.17713392D-01 -0.31508692D-02 -0.24671172D-04
  0.21797275D-01  0.60761652D-02 -0.12201795D-02  0.11856812D-01  0.38459391D-02
 -0.10074053D-02  0.17962136D-02  0.10346352D-03  0.15998075D-03  0.20007274D-02
 -0.26424797D-02  0.64175226D-03 -0.11035483D-01  0.75336875D-02  0.47306660D-02
  0.30489654D-04 -0.48906058D-04  0.18416404D-04 -0.11863805D-02  0.69757805D-03
 -0.32618520D-04
MO    4     MO 0.0        OCC NO =    2.0000000  ORB. ENERGY =    0.000000
  0.38404106D+00  0.71578940D+00  0.12137215D+01  0.18368384D+01  0.22913112D+01
  0.19662859D+01  0.75298303D+00 -0.23217156D-03 -0.24910485D-02 -0.91824736D-02
 -0.26849014D-01 -0.32354368D-01  0.38974265D-01  0.69133236D-01  0.21118261D-01
  0.22308465D-02 -0.10080013D+01 -0.97742221D+00 -0.65936325D+00 -0.69897809D-01
 -0.67777362D-01 -0.45722208D-01  0.20245771D+00  0.19631587D+00  0.13243353D+00
 -0.22753205D+00 -0.13708798D-01  0.43685434D-01 -0.37164609D-01 -0.10288838D-02
  0.58758584D-02 -0.11805888D-02 -0.48653149D-05  0.11406713D-03  0.11733284D-04
  0.54663032D-02 -0.54780365D-02 -0.23695599D-02  0.41558615D-01  0.58802161D-02
 -0.85582275D-04  0.14969237D-02 -0.14113414D-02 -0.72139681D-04  0.10381393D-01
  0.58714065D-03 -0.97414789D-04  0.16622278D-03 -0.68807989D-04  0.47790482D-04
  0.65694099D-03 -0.12081610D-03  0.60679784D-02 -0.24268500D-03  0.10049774D-02
 -0.13299376D-01  0.33856794D-03 -0.36147870D-03 -0.49045597D-02  0.38948708D-03
 -0.26534536D-02 -0.18866613D-03  0.16207313D-03 -0.25237430D-04 -0.99036270D-04
 -0.19759025D-03  0.50695482D-04 -0.21518336D-03 -0.28862913D-03  0.25016807D-04
  0.51229217D-03 -0.24194704D-03  0.99525445D-03  0.17949824D-02  0.26467005D-02
 -0.27052814D-02 -0.14518434D-02 -0.32448838D-04 -0.13952943D-01  0.83432268D-04
  0.37279004D-02 -0.76088803D-02 -0.16597172D-02  0.69609819D-03 -0.11770209D-02
 -0.14153472D-03  0.11486738D-03  0.63730144D-03 -0.13767986D-02  0.73949712D-03
 -0.69004932D-02 -0.51458082D-02 -0.10601254D-02  0.42733161D-04 -0.71349196D-04
  0.28616035D-04 -0.73553263D-03 -0.45959183D-03  0.35190870D-04 -0.23133737D-02
 -0.41722647D-02 -0.61520018D-02 -0.10012522D-01 -0.24153417D-02 -0.30795111D-04
 -0.14969704D-01  0.24936053D-02  0.10240162D-02 -0.81428966D-02  0.28801459D-02
 -0.48055076D-03 -0.12335847D-02  0.15310914D-03  0.87808819D-04  0.15833312D-02
 -0.21908707D-02  0.60753942D-03  0.75788331D-02 -0.51739068D-02  0.35817062D-02
  0.43723613D-04 -0.63512468D-04  0.19788855D-04  0.81476994D-03 -0.47907533D-03
  0.15648357D-04
MO    5     MO 0.0        OCC NO =    2.0000000  ORB. ENERGY =    0.000000
 -0.21770529D+00 -0.40576687D+00 -0.68803475D+00 -0.10412674D+01 -0.12988991D+01
 -0.11146486D+01 -0.42685121D+00 -0.16170096D-02 -0.17349451D-01 -0.63953345D-01
 -0.18699583D+00 -0.22533907D+00  0.27144479D+00  0.14126826D+00  0.99822629D-01
  0.90875745D-02 -0.68630984D-01 -0.66548968D-01 -0.44893541D-01  0.18744881D-01
  0.18176229D-01  0.12261577D-01  0.72943730D+00  0.70730882D+00  0.47714635D+00
 -0.15491793D-01  0.27710742D-02  0.15531021D+00 -0.25303971D-02 -0.15012359D-03
  0.23452909D-01 -0.80381808D-04 -0.92263204D-05  0.46614392D-03 -0.29533137D-03
  0.20441794D-01 -0.20146463D-01 -0.16133434D-03  0.28295683D-02 -0.12573424D-02
 -0.24036272D-02  0.74282453D-02 -0.50246181D-02 -0.49117171D-05  0.70682965D-03
  0.93580621D-03 -0.34453612D-03  0.59830261D-03 -0.25376649D-03  0.32538725D-05
  0.44728618D-04  0.93361446D-04  0.41314562D-03  0.22501791D-03  0.23462763D-02
 -0.90550400D-03  0.45383811D-04 -0.35716689D-02 -0.33393285D-03 -0.72043753D-03
 -0.34671601D-02 -0.12845561D-04  0.11034944D-04 -0.16005926D-04 -0.13824087D-04
 -0.13453170D-04  0.63817197D-04  0.75440978D-04 -0.19651662D-04 -0.15799419D-04
 -0.33968717D-04 -0.16473255D-04  0.44042807D-02  0.79433017D-02  0.11712394D-01
 -0.14574767D-01 -0.73459261D-02 -0.13800501D-03 -0.95000293D-03  0.59770457D-02
  0.15638085D-01 -0.51805978D-03 -0.49830869D-02  0.27476988D-02 -0.80138882D-04
 -0.54952986D-03  0.44802805D-03 -0.37307463D-03 -0.22962725D-02  0.26693471D-02
 -0.46982839D-03 -0.35035854D-03  0.35910878D-02  0.16337534D-03 -0.28496832D-03
  0.12159299D-03 -0.50079625D-04 -0.31291863D-04  0.65339289D-04  0.70533228D-02
  0.12720958D-01  0.18757045D-01 -0.10648341D-01 -0.66636612D-02 -0.13386290D-03
 -0.10192303D-02 -0.88281557D-02  0.18091417D-01 -0.55441892D-03  0.41152894D-02
  0.38471815D-02 -0.83990102D-04  0.46925362D-03  0.52587465D-03 -0.11001581D-02
 -0.15775795D-02  0.26777376D-02  0.51601398D-03 -0.35227168D-03 -0.62180386D-02
  0.13856303D-03 -0.25553309D-03  0.11697006D-03  0.55474593D-04 -0.32618421D-04
 -0.17322843D-03
END DATA
 TOTAL ENERGY =    -76.465231046816 THE VIRIAL(-V/T)=   2.00523111
