 53
GAUSSIAN              5 MOL ORBITALS    126 PRIMITIVES        3 NUCLEI   B3LYP   B3LYP   B3LYP
  O    1    (CENTRE  1)   0.00000000  0.00000000  0.00815606  CHARGE =  8.0
  H    2    (CENTRE  2)  -0.09448631 -1.44255835 -1.19178791  CHARGE =  1.0
  H    3    (CENTRE  3)   0.00000000  1.44255835 -1.09730160  CHARGE =  1.0
CENTRE ASSIGNMENTS    1  1  1  1  1  1  1  1  1  1  1  1  1  1  1  1  1  1  1  1
CENTRE ASSIGNMENTS    1  1  1  1  1  1  1  1  1  1  1  1  1  1  1  1  1  1  1  1
CENTRE ASSIGNMENTS    1  1  1  1  1  1  1  1  1  1  1  1  1  1  1  1  1  1  1  1
CENTRE ASSIGNMENTS    1  1  1  1  1  1  1  1  1  1  1  1  2  2  2  2  2  2  2  2
CENTRE ASSIGNMENTS    2  2  2  2  2  2  2  2  2  2  2  2  2  2  2  2  2  2  2  3
CENTRE ASSIGNMENTS    3  3  3  3  3  3  3  3  3  3  3  3  3  3  3  3  3  3  3  3
CENTRE ASSIGNMENTS    3  3  3  3  3  3
TYPE ASSIGNMENTS      1  1  1  1  1  1  1  1  1  1  1  1  1  1  1  1  2  2  2  3
TYPE ASSIGNMENTS      3  3  4  4  4  2  3  4  2  3  4  2  3  4  5  6  7  8  9 10
TYPE ASSIGNMENTS      5  6  7  8  9 10  5  6  7  8  9 10 11 12 13 17 14 15 18 19
TYPE ASSIGNMENTS     16 20 11 12 13 17 14 15 18 19 16 20  1  1  1  1  1  1  2  3
TYPE ASSIGNMENTS      4  2  3  4  2  3  4  5  6  7  8  9 10  5  6  7  8  9 10  1
TYPE ASSIGNMENTS      1  1  1  1  1  2  3  4  2  3  4  2  3  4  5  6  7  8  9 10
TYPE ASSIGNMENTS      5  6  7  8  9 10
EXPONENTS  0.1533000D+05 0.2299000D+04 0.5224000D+03 0.1473000D+03 0.4755000D+02
EXPONENTS  0.1676000D+02 0.6207000D+01 0.5224000D+03 0.1473000D+03 0.4755000D+02
EXPONENTS  0.1676000D+02 0.6207000D+01 0.6882000D+00 0.1752000D+01 0.2384000D+00
EXPONENTS  0.7376000D-01 0.3446000D+02 0.7749000D+01 0.2280000D+01 0.3446000D+02
EXPONENTS  0.7749000D+01 0.2280000D+01 0.3446000D+02 0.7749000D+01 0.2280000D+01
EXPONENTS  0.7156000D+00 0.7156000D+00 0.7156000D+00 0.2140000D+00 0.2140000D+00
EXPONENTS  0.2140000D+00 0.5974000D-01 0.5974000D-01 0.5974000D-01 0.2314000D+01
EXPONENTS  0.2314000D+01 0.2314000D+01 0.2314000D+01 0.2314000D+01 0.2314000D+01
EXPONENTS  0.6450000D+00 0.6450000D+00 0.6450000D+00 0.6450000D+00 0.6450000D+00
EXPONENTS  0.6450000D+00 0.2140000D+00 0.2140000D+00 0.2140000D+00 0.2140000D+00
EXPONENTS  0.2140000D+00 0.2140000D+00 0.1428000D+01 0.1428000D+01 0.1428000D+01
EXPONENTS  0.1428000D+01 0.1428000D+01 0.1428000D+01 0.1428000D+01 0.1428000D+01
EXPONENTS  0.1428000D+01 0.1428000D+01 0.5000000D+00 0.5000000D+00 0.5000000D+00
EXPONENTS  0.5000000D+00 0.5000000D+00 0.5000000D+00 0.5000000D+00 0.5000000D+00
EXPONENTS  0.5000000D+00 0.5000000D+00 0.3387000D+02 0.5095000D+01 0.1159000D+01
EXPONENTS  0.3258000D+00 0.1027000D+00 0.2526000D-01 0.1407000D+01 0.1407000D+01
EXPONENTS  0.1407000D+01 0.3880000D+00 0.3880000D+00 0.3880000D+00 0.1020000D+00
EXPONENTS  0.1020000D+00 0.1020000D+00 0.1057000D+01 0.1057000D+01 0.1057000D+01
EXPONENTS  0.1057000D+01 0.1057000D+01 0.1057000D+01 0.2470000D+00 0.2470000D+00
EXPONENTS  0.2470000D+00 0.2470000D+00 0.2470000D+00 0.2470000D+00 0.3387000D+02
EXPONENTS  0.5095000D+01 0.1159000D+01 0.3258000D+00 0.1027000D+00 0.2526000D-01
EXPONENTS  0.1407000D+01 0.1407000D+01 0.1407000D+01 0.3880000D+00 0.3880000D+00
EXPONENTS  0.3880000D+00 0.1020000D+00 0.1020000D+00 0.1020000D+00 0.1057000D+01
EXPONENTS  0.1057000D+01 0.1057000D+01 0.1057000D+01 0.1057000D+01 0.1057000D+01
EXPONENTS  0.2470000D+00 0.2470000D+00 0.2470000D+00 0.2470000D+00 0.2470000D+00
EXPONENTS  0.2470000D+00
MO    1     MO 0.0        OCC NO =    2.0000000  ORB. ENERGY =    0.000000
 -0.72804256D-01 -0.13569516D+00 -0.23009022D+00 -0.34821708D+00 -0.43437336D+00
 -0.37275696D+00 -0.14274611D+00 -0.81437525D-03 -0.87377120D-02 -0.32208852D-01
 -0.94176792D-01 -0.11348761D+00  0.13670786D+00  0.74641083D-01  0.96460761D-03
 -0.44998992D-02 -0.24263148D+00 -0.23527092D+00 -0.15871237D+00 -0.27438400D+00
 -0.26606018D+00 -0.17948263D+00 -0.11984149D+01 -0.11620593D+01 -0.78391835D+00
 -0.54423179D-01 -0.59591478D-01 -0.26318723D+00 -0.83611069D-02 -0.68968007D-02
 -0.30084579D-01 -0.24884222D-03 -0.67602889D-04 -0.56871964D-03 -0.42758633D-01
  0.91197495D-02  0.33638883D-01  0.38850228D-02  0.14566486D-01  0.25064260D-01
 -0.75388452D-02 -0.25555997D-02  0.10094445D-01  0.49644278D-03  0.35972005D-02
  0.49850693D-02  0.49587921D-03 -0.99846681D-03  0.50258760D-03 -0.77431357D-04
  0.14524034D-03  0.19465536D-03  0.19211134D-02 -0.11141592D-02 -0.40376340D-03
 -0.31971392D-02  0.32769824D-02  0.17225999D-01 -0.25662012D-02  0.65495220D-04
 -0.16014709D-01 -0.23849140D-02  0.80794828D-04  0.25517584D-04 -0.63006131D-03
 -0.38473090D-04  0.36665457D-03  0.50123051D-03 -0.20391140D-03 -0.44320732D-03
  0.13889534D-02 -0.58570719D-04  0.38825610D-01  0.70023587D-01  0.10324974D+00
  0.63556631D-01  0.78844307D-02  0.23290851D-04 -0.78420535D-03  0.31620421D-01
  0.14865143D-01 -0.76675771D-03  0.11559835D-01  0.41963263D-02 -0.23073961D-03
  0.47223226D-04 -0.67881896D-03 -0.53415291D-02  0.59979424D-02 -0.65641330D-03
  0.10089832D-03 -0.12074117D-03  0.13720723D-01 -0.19467721D-03  0.18045586D-03
  0.14221350D-04 -0.92826713D-04 -0.58176809D-04  0.58339223D-04  0.24259700D-01
  0.43753367D-01  0.64514315D-01  0.37539351D-01  0.40105548D-02  0.73101146D-04
 -0.32780884D-02 -0.27415389D-01  0.38134795D-02 -0.17268227D-02 -0.93860525D-02
 -0.80657914D-03 -0.25221481D-03 -0.91654230D-04 -0.82597533D-03 -0.30871583D-02
  0.60200704D-02 -0.29329122D-02  0.15862863D-02 -0.11430865D-02 -0.66335863D-02
 -0.43419698D-04  0.18892353D-03 -0.14550383D-03  0.16780680D-03 -0.75621282D-04
  0.48708877D-03
MO    2     MO 0.0        OCC NO =    2.0000000  ORB. ENERGY =    0.000000
 -0.91115101D-01 -0.16982357D+00 -0.28795972D+00 -0.43579642D+00 -0.54362168D+00
 -0.46650828D+00 -0.17864789D+00 -0.27068280D-03 -0.29042488D-02 -0.10705608D-01
 -0.31302569D-01 -0.37721118D-01  0.45439084D-01  0.17688692D-01  0.60377269D-02
 -0.77820319D-04 -0.51999721D+00 -0.50422237D+00 -0.34014543D+00  0.13707868D+01
  0.13292021D+01  0.89667189D+00 -0.70792016D-01 -0.68644442D-01 -0.46307135D-01
 -0.11809590D+00  0.28707928D+00 -0.14271385D-01 -0.20026739D-01  0.29060551D-01
 -0.15971921D-04 -0.66633453D-03  0.32984183D-03  0.37407367D-05 -0.60677871D-02
  0.67177164D-02 -0.64992929D-03 -0.56952899D-02  0.19139508D-01 -0.12773155D+00
 -0.77761272D-03  0.36572032D-03  0.41189241D-03 -0.75212973D-03  0.55545335D-02
 -0.18334311D-01  0.19474378D-03 -0.20678539D-03  0.12041605D-04  0.21223391D-04
  0.42117776D-03  0.50118111D-03  0.29077344D-02  0.62112612D-02  0.60539536D-04
 -0.52350059D-02 -0.15172420D-01  0.84834439D-03 -0.34881972D-02 -0.34613642D-02
 -0.10299630D-02  0.79914811D-03  0.11284877D-03  0.10372199D-03 -0.11367673D-03
 -0.13812622D-03 -0.96429360D-03 -0.92211104D-04 -0.20042009D-03  0.65312762D-03
  0.43324130D-03  0.22445572D-04 -0.28858010D-01 -0.52046610D-01 -0.76742696D-01
 -0.54822311D-01 -0.75736283D-02  0.11735278D-03 -0.84144626D-02 -0.10698086D-01
 -0.20692511D-01 -0.44609901D-02 -0.45527585D-02 -0.91456313D-02 -0.62073852D-03
  0.25691754D-03 -0.22961695D-03  0.49132597D-02 -0.11439227D-02 -0.37693370D-02
 -0.45658486D-02 -0.40341252D-02 -0.15141566D-01  0.11378927D-03  0.11579329D-03
 -0.22958256D-03 -0.38898492D-03 -0.28421831D-03 -0.70254682D-03  0.39762934D-01
  0.71714089D-01  0.10574238D+00  0.70331246D-01  0.77951597D-02 -0.12377908D-03
 -0.73507513D-02 -0.23735850D-01  0.29058768D-01 -0.40346482D-02 -0.78601043D-02
  0.10976324D-01 -0.63531398D-03  0.40608695D-03  0.11314928D-03 -0.72969919D-02
  0.38104216D-02  0.34865703D-02  0.37079793D-02 -0.26647325D-02 -0.21610513D-01
 -0.54679219D-04 -0.17048959D-03  0.22516881D-03  0.37703204D-03 -0.24197233D-03
 -0.46393199D-03
MO    3     MO 0.0        OCC NO =    2.0000000  ORB. ENERGY =    0.000000
 -0.16572038D+00 -0.30887554D+00 -0.52374188D+00 -0.79262764D+00 -0.98874051D+00
 -0.84848646D+00 -0.32492524D+00 -0.15790836D-03 -0.16942531D-02 -0.62453359D-02
 -0.18260996D-01 -0.22005388D-01  0.26507822D-01 -0.32482081D-02  0.13032567D-02
 -0.48335474D-03  0.16351168D+01  0.15855132D+01  0.10695779D+01  0.29330161D+00
  0.28440390D+00  0.19185719D+00 -0.20441422D+00 -0.19821303D+00 -0.13371334D+00
  0.36918490D+00  0.60114775D-01 -0.45339947D-01  0.61022015D-01  0.51320678D-02
 -0.56045468D-02  0.19693830D-02  0.13203004D-04 -0.14070140D-03 -0.78636268D-02
  0.19502614D-02  0.59133654D-02  0.30346308D-02 -0.66109252D-01 -0.30341741D-01
 -0.17446597D-02 -0.97313471D-04  0.18419732D-02  0.15342904D-03 -0.17432717D-01
 -0.38480646D-02  0.30184686D-04 -0.13564214D-03  0.10545745D-03 -0.77211070D-04
 -0.12133150D-02  0.21618822D-03 -0.96695153D-02  0.91154270D-03 -0.56703370D-03
  0.19742892D-01 -0.13897536D-02  0.37200254D-02  0.92656535D-02 -0.13448745D-02
 -0.20189243D-02 -0.20983541D-03 -0.42393474D-03  0.11451390D-04 -0.84464896D-04
  0.67118131D-03 -0.12505874D-03  0.22599555D-03  0.60062290D-03  0.90704567D-04
  0.27399137D-04  0.42547122D-03 -0.43125359D-02 -0.77778361D-02 -0.11468415D-01
 -0.91002673D-02 -0.13170620D-02  0.33161852D-04  0.20854734D-01 -0.72349193D-03
 -0.53078366D-02  0.11381800D-01 -0.51072325D-03 -0.26192051D-02  0.17993835D-02
  0.17171588D-04 -0.20343587D-03  0.14081965D-02  0.33844286D-04 -0.14420408D-02
  0.10178686D-01  0.79642443D-02 -0.31170229D-02  0.79345097D-04  0.13272999D-04
 -0.92618096D-04  0.10365134D-02  0.66022235D-03 -0.25352623D-03  0.13115859D-01
  0.23654992D-01  0.34879272D-01  0.23008002D-01  0.26148381D-02 -0.25245990D-04
  0.22732895D-01 -0.99763870D-02  0.73249492D-02  0.12351877D-01 -0.36623058D-02
  0.24964809D-02  0.18999369D-02  0.16771775D-04 -0.11832275D-03 -0.25735610D-02
  0.22583643D-02  0.31519674D-03 -0.11354517D-01  0.83881894D-02 -0.70887289D-02
 -0.31508021D-04  0.17688046D-04  0.13819975D-04 -0.11764021D-02  0.73190316D-03
 -0.69223026D-04
MO    4     MO 0.0        OCC NO =    2.0000000  ORB. ENERGY =    0.000000
  0.45242015D+00  0.84323678D+00  0.14298265D+01  0.21638903D+01  0.26992826D+01
  0.23163860D+01  0.88705280D+00  0.58394729D-03  0.62653712D-02  0.23095338D-01
  0.67529414D-01  0.81376227D-01 -0.98026289D-01 -0.68131250D-02 -0.44815372D-01
 -0.49516897D-02  0.39180110D+00  0.37991527D+00  0.25628860D+00  0.34156248D+00
  0.33120071D+00  0.22342604D+00 -0.57251220D+00 -0.55514425D+00 -0.37449703D+00
  0.88646751D-01  0.71678058D-01 -0.12156628D+00  0.14688572D-01  0.70994090D-02
 -0.16012918D-01  0.47824985D-03  0.73483133D-04 -0.31398305D-03 -0.11501953D-01
 -0.32617162D-02  0.14763669D-01  0.53063793D-04 -0.15305720D-01 -0.33476376D-01
 -0.21745292D-03 -0.39691096D-02  0.41865625D-02 -0.39699405D-03 -0.41601442D-02
 -0.51848326D-02  0.32938115D-03 -0.54216473D-03  0.21278358D-03 -0.68096815D-04
 -0.30901048D-03  0.13227086D-03 -0.22805189D-02  0.13706381D-02 -0.11189279D-02
  0.51029566D-02 -0.35315000D-02  0.60994082D-02  0.17386000D-02 -0.58041436D-03
 -0.27426244D-02 -0.27892545D-03 -0.12150358D-03  0.15613648D-04 -0.29955054D-03
  0.22391825D-03 -0.20949154D-03 -0.20788958D-03  0.14059248D-03  0.16265060D-03
  0.11065412D-02  0.21756804D-03 -0.39000568D-02 -0.70339131D-02 -0.10371501D-01
  0.11301143D-02  0.25115363D-02  0.10874055D-03  0.47619858D-02 -0.77599634D-03
 -0.10621768D-01  0.27946006D-02  0.25166771D-02 -0.32306260D-02  0.44161906D-03
  0.31362836D-03 -0.38028566D-03  0.14273820D-02  0.10808565D-02 -0.25082385D-02
  0.23408609D-02  0.15696347D-02 -0.51053211D-02 -0.47148483D-04  0.16453901D-03
 -0.11739053D-03  0.26422678D-03  0.15603685D-03 -0.22595551D-03  0.13246905D-01
  0.23891339D-01  0.35227765D-01  0.32350407D-01  0.59893436D-02  0.35767000D-04
  0.54293259D-02 -0.79248229D-02  0.11674418D-02  0.29410221D-02 -0.54475593D-02
  0.12555703D-02  0.45390328D-03 -0.86539950D-04 -0.35943601D-03 -0.15526390D-02
  0.22745692D-02 -0.72193017D-03 -0.27026416D-02  0.20420028D-02 -0.31531552D-02
 -0.71624298D-04  0.75698680D-04 -0.40743825D-05 -0.28077412D-03  0.18726615D-03
  0.29242718D-04
MO    5     MO 0.0        OCC NO =    2.0000000  ORB. ENERGY =    0.000000
  0.11633419D+00  0.21682780D+00  0.36766200D+00  0.55641734D+00  0.69408677D+00
  0.59562971D+00  0.22809454D+00 -0.13989934D-02 -0.15010281D-01 -0.55330723D-01
 -0.16178379D+00 -0.19495733D+00  0.23484676D+00  0.15855102D+00  0.97606605D-01
  0.95683340D-02  0.23551243D+00  0.22836784D+00  0.15405559D+00 -0.67211146D-02
 -0.65172203D-02 -0.43964783D-02  0.86182697D+00  0.83568226D+00  0.56374632D+00
  0.52766305D-01 -0.12750631D-02  0.18395489D+00  0.85369298D-02 -0.17637913D-03
  0.25652280D-01  0.26129556D-03 -0.67819745D-05  0.47241785D-03  0.55471111D-02
  0.16690983D-01 -0.22238094D-01  0.11430737D-02 -0.10410098D-01 -0.73121435D-04
 -0.14449997D-02  0.73931727D-02 -0.59481730D-02  0.60210746D-03 -0.25115775D-02
  0.52086684D-03 -0.42337075D-03  0.72320346D-03 -0.29983271D-03  0.61494836D-04
 -0.14112044D-03 -0.31486761D-04 -0.14051795D-02  0.11371569D-03  0.28360939D-02
  0.22760197D-02  0.37692187D-04 -0.50264965D-02  0.19395188D-02 -0.37883925D-03
 -0.34817853D-02  0.83777551D-04 -0.54347380D-04 -0.14508228D-04  0.14552245D-03
  0.61753829D-04  0.53465100D-04 -0.82573240D-04  0.10128831D-03 -0.99404158D-05
 -0.35399410D-03  0.29333620D-04 -0.17980625D-02 -0.32428797D-02 -0.47816243D-02
 -0.22708478D-01 -0.82126751D-02 -0.14039858D-03  0.30904576D-02  0.22833453D-03
  0.12115738D-01  0.12694990D-02 -0.65269702D-02  0.15548964D-02  0.22161303D-03
 -0.56173827D-03  0.43139126D-03  0.94658893D-03 -0.33146038D-02  0.23680148D-02
  0.98008950D-03  0.11133376D-02 -0.64736882D-03  0.18115416D-03 -0.27101539D-03
  0.89861228D-04  0.99819892D-04  0.75652416D-04 -0.14797145D-04 -0.17578886D-03
 -0.31704244D-03 -0.46747889D-03 -0.21682583D-01 -0.79361533D-02 -0.14476727D-03
  0.33016555D-02 -0.13012547D-02  0.13501454D-01  0.18030838D-02  0.64234375D-02
  0.20767249D-02  0.26913742D-03  0.50712824D-03  0.48038952D-03  0.74314192D-03
 -0.33007413D-02  0.25575994D-02 -0.16628792D-02  0.11640858D-02 -0.36248684D-03
  0.14022314D-03 -0.23816837D-03  0.97945236D-04 -0.17193966D-03  0.83106489D-04
 -0.93759828D-04
END DATA
 TOTAL ENERGY =    -76.465217104367 THE VIRIAL(-V/T)=   2.00665166
