 60
GAUSSIAN              5 MOL ORBITALS    126 PRIMITIVES        3 NUCLEI   B3LYP   B3LYP   B3LYP
  O    1    (CENTRE  1)   0.09448631  0.00000000  0.00815606  CHARGE =  8.0
  H    2    (CENTRE  2)   0.00000000 -1.44255835 -1.09730160  CHARGE =  1.0
  H    3    (CENTRE  3)   0.09448631  1.44255835 -1.09730160  CHARGE =  1.0
CENTRE ASSIGNMENTS    1  1  1  1  1  1  1  1  1  1  1  1  1  1  1  1  1  1  1  1
CENTRE ASSIGNMENTS    1  1  1  1  1  1  1  1  1  1  1  1  1  1  1  1  1  1  1  1
CENTRE ASSIGNMENTS    1  1  1  1  1  1  1  1  1  1  1  1  1  1  1  1  1  1  1  1
CENTRE ASSIGNMENTS    1  1  1  1  1  1  1  1  1  1  1  1  2  2  2  2  2  2  2  2
CENTRE ASSIGNMENTS    2  2  2  2  2  2  2  2  2  2  2  2  2  2  2  2  2  2  2  3
CENTRE ASSIGNMENTS    3  3  3  3  3  3  3  3  3  3  3  3  3  3  3  3  3  3  3  3
CENTRE ASSIGNMENTS    3  3  3  3  3  3
TYPE ASSIGNMENTS      1  1  1  1  1  1  1  1  1  1  1  1  1  1  1  1  2  2  2  3
TYPE ASSIGNMENTS      3  3  4  4  4  2  3  4  2  3  4  2  3  4  5  6  7  8  9 10
TYPE ASSIGNMENTS      5  6  7  8  9 10  5  6  7  8  9 10 11 12 13 17 14 15 18 19
TYPE ASSIGNMENTS     16 20 11 12 13 17 14 15 18 19 16 20  1  1  1  1  1  1  2  3
TYPE ASSIGNMENTS      4  2  3  4  2  3  4  5  6  7  8  9 10  5  6  7  8  9 10  1
TYPE ASSIGNMENTS      1  1  1  1  1  2  3  4  2  3  4  2  3  4  5  6  7  8  9 10
TYPE ASSIGNMENTS      5  6  7  8  9 10
EXPONENTS  0.1533000D+05 0.2299000D+04 0.5224000D+03 0.1473000D+03 0.4755000D+02
EXPONENTS  0.1676000D+02 0.6207000D+01 0.5224000D+03 0.1473000D+03 0.4755000D+02
EXPONENTS  0.1676000D+02 0.6207000D+01 0.6882000D+00 0.1752000D+01 0.2384000D+00
EXPONENTS  0.7376000D-01 0.3446000D+02 0.7749000D+01 0.2280000D+01 0.3446000D+02
EXPONENTS  0.7749000D+01 0.2280000D+01 0.3446000D+02 0.7749000D+01 0.2280000D+01
EXPONENTS  0.7156000D+00 0.7156000D+00 0.7156000D+00 0.2140000D+00 0.2140000D+00
EXPONENTS  0.2140000D+00 0.5974000D-01 0.5974000D-01 0.5974000D-01 0.2314000D+01
EXPONENTS  0.2314000D+01 0.2314000D+01 0.2314000D+01 0.2314000D+01 0.2314000D+01
EXPONENTS  0.6450000D+00 0.6450000D+00 0.6450000D+00 0.6450000D+00 0.6450000D+00
EXPONENTS  0.6450000D+00 0.2140000D+00 0.2140000D+00 0.2140000D+00 0.2140000D+00
EXPONENTS  0.2140000D+00 0.2140000D+00 0.1428000D+01 0.1428000D+01 0.1428000D+01
EXPONENTS  0.1428000D+01 0.1428000D+01 0.1428000D+01 0.1428000D+01 0.1428000D+01
EXPONENTS  0.1428000D+01 0.1428000D+01 0.5000000D+00 0.5000000D+00 0.5000000D+00
EXPONENTS  0.5000000D+00 0.5000000D+00 0.5000000D+00 0.5000000D+00 0.5000000D+00
EXPONENTS  0.5000000D+00 0.5000000D+00 0.3387000D+02 0.5095000D+01 0.1159000D+01
EXPONENTS  0.3258000D+00 0.1027000D+00 0.2526000D-01 0.1407000D+01 0.1407000D+01
EXPONENTS  0.1407000D+01 0.3880000D+00 0.3880000D+00 0.3880000D+00 0.1020000D+00
EXPONENTS  0.1020000D+00 0.1020000D+00 0.1057000D+01 0.1057000D+01 0.1057000D+01
EXPONENTS  0.1057000D+01 0.1057000D+01 0.1057000D+01 0.2470000D+00 0.2470000D+00
EXPONENTS  0.2470000D+00 0.2470000D+00 0.2470000D+00 0.2470000D+00 0.3387000D+02
EXPONENTS  0.5095000D+01 0.1159000D+01 0.3258000D+00 0.1027000D+00 0.2526000D-01
EXPONENTS  0.1407000D+01 0.1407000D+01 0.1407000D+01 0.3880000D+00 0.3880000D+00
EXPONENTS  0.3880000D+00 0.1020000D+00 0.1020000D+00 0.1020000D+00 0.1057000D+01
EXPONENTS  0.1057000D+01 0.1057000D+01 0.1057000D+01 0.1057000D+01 0.1057000D+01
EXPONENTS  0.2470000D+00 0.2470000D+00 0.2470000D+00 0.2470000D+00 0.2470000D+00
EXPONENTS  0.2470000D+00
MO    1     MO 0.0        OCC NO =    2.0000000  ORB. ENERGY =    0.000000
 -0.40604868D-01 -0.75680798D-01 -0.12832743D+00 -0.19420992D+00 -0.24226156D+00
 -0.20789646D+00 -0.79613301D-01  0.41139680D-03  0.44140177D-02  0.16270900D-01
  0.47575158D-01  0.57330379D-01 -0.69060517D-01 -0.47053843D-01  0.30762991D-02
  0.27760452D-02  0.15104746D+01  0.14646523D+01  0.98804580D+00 -0.67315747D-01
 -0.65273631D-01 -0.44033206D-01  0.64041896D+00  0.62099096D+00  0.41891683D+00
  0.34090885D+00 -0.14800711D-01  0.13924563D+00  0.55742947D-01 -0.21455472D-02
  0.15091262D-01  0.17777582D-02 -0.61389103D-04  0.26897896D-03  0.22493806D-01
 -0.63287788D-02 -0.16165027D-01 -0.17543222D-02 -0.64152230D-01  0.38439437D-02
  0.32961103D-02  0.17168241D-02 -0.50129343D-02 -0.11040263D-03 -0.16412371D-01
  0.72246834D-03 -0.41600860D-03  0.65873362D-03 -0.24272502D-03  0.65337913D-04
 -0.10265989D-02  0.12959351D-04 -0.92295352D-02 -0.69786075D-03 -0.25490109D-03
  0.18922515D-01  0.23185491D-02 -0.80726073D-02  0.87660906D-02 -0.22496682D-03
  0.88373106D-02  0.10755078D-02 -0.31687670D-03 -0.17668961D-04  0.36667622D-03
  0.41570101D-03  0.66573282D-04 -0.18757988D-04  0.53492908D-03 -0.13566399D-04
 -0.10812707D-02 -0.54658799D-04 -0.17370029D-01 -0.31327562D-01 -0.46192472D-01
 -0.28392286D-01 -0.32389697D-02 -0.30611801D-04  0.19752968D-01 -0.17732086D-01
 -0.52420838D-02  0.10944348D-01 -0.63281854D-02 -0.94348336D-03  0.17436005D-02
 -0.68324223D-04  0.41794471D-03  0.28403708D-02 -0.38841420D-02  0.10437711D-02
  0.95777343D-02  0.72783247D-02 -0.57583458D-02  0.10044425D-03 -0.12574024D-03
  0.25295988D-04  0.10679520D-02  0.66941671D-03  0.17732271D-03 -0.18325570D-01
 -0.33050919D-01 -0.48733561D-01 -0.30159779D-01 -0.34383579D-02 -0.27505135D-04
  0.20921474D-01  0.16991408D-01 -0.59780322D-02  0.11362369D-01  0.57989086D-02
 -0.12203673D-02  0.17477174D-02 -0.52698623D-04  0.41506390D-03  0.23747630D-02
 -0.33318762D-02  0.95711318D-03 -0.10387115D-01  0.76663635D-02  0.58401546D-02
  0.28906248D-04 -0.50910196D-04  0.22003948D-04 -0.10909073D-02  0.66096790D-03
 -0.21183842D-03
MO    2     MO 0.0        OCC NO =    2.0000000  ORB. ENERGY =    0.000000
 -0.64128372D-01 -0.11952474D+00 -0.20267100D+00 -0.30672100D+00 -0.38261027D+00
 -0.32833654D+00 -0.12573545D+00 -0.51502486D-03 -0.55258787D-02 -0.20369430D-01
 -0.59559017D-01 -0.71771512D-01  0.86456391D-01  0.45261322D-01 -0.13870271D-01
 -0.51723749D-02  0.91186973D+00  0.88420690D+00  0.59648075D+00 -0.74532204D-01
 -0.72271167D-01 -0.48753702D-01 -0.12004286D+01 -0.11640119D+01 -0.78523556D+00
  0.20634653D+00 -0.16098088D-01 -0.26208479D+00  0.34486698D-01 -0.20521769D-02
 -0.30688870D-01  0.11214565D-02 -0.46275966D-04 -0.62242280D-03 -0.40093861D-01
  0.75185973D-02  0.32575263D-01  0.33361011D-02 -0.33237198D-01  0.51598954D-02
 -0.64281181D-02 -0.32748465D-02  0.97029646D-02  0.22300825D-03 -0.88117791D-02
  0.89219708D-03  0.57287767D-03 -0.10689630D-02  0.49608531D-03 -0.11108190D-03
 -0.68390460D-03  0.77536958D-05 -0.50544891D-02 -0.59583704D-03 -0.72494778D-03
  0.11405981D-01  0.17295857D-02  0.16536127D-01  0.37574859D-02  0.57925403D-04
 -0.14361284D-01 -0.20674198D-02 -0.19240668D-03 -0.11964704D-04 -0.58183777D-03
  0.36108057D-03  0.75225830D-04  0.28174651D-03  0.21613948D-03 -0.39331719D-04
  0.14637668D-02  0.82006171D-04  0.28550212D-01  0.51491482D-01  0.75924160D-01
  0.49155440D-01  0.61673820D-02  0.54388150D-04  0.14513528D-01  0.26836692D-01
  0.63151940D-02  0.76409909D-02  0.10047616D-01  0.84489242D-03  0.10889200D-02
  0.29520882D-04 -0.83056413D-03 -0.35764229D-02  0.59477477D-02 -0.23713248D-02
  0.76835958D-02  0.53550386D-02  0.90006081D-02 -0.36160137D-04  0.13691197D-03
 -0.10075183D-03  0.69381964D-03  0.41731505D-03 -0.38838835D-03  0.26313804D-01
  0.47458029D-01  0.69976836D-01  0.45056247D-01  0.56487663D-02  0.61320851D-04
  0.12736453D-01 -0.26577250D-01  0.47087266D-02  0.69744818D-02 -0.10087085D-01
  0.17950581D-03  0.10858727D-02 -0.11516013D-03 -0.84476194D-03 -0.36260234D-02
  0.62085064D-02 -0.25824829D-02 -0.63752523D-02  0.47614414D-02 -0.81292954D-02
 -0.73318520D-04  0.18914052D-03 -0.11582200D-03 -0.66526221D-03  0.44433295D-03
  0.40479565D-03
MO    3     MO 0.0        OCC NO =    2.0000000  ORB. ENERGY =    0.000000
  0.46612560D+00  0.86878147D+00  0.14731411D+01  0.22294424D+01  0.27810536D+01
  0.23865578D+01  0.91392484D+00  0.81792464D-03  0.87757946D-02  0.32349231D-01
  0.94587255D-01  0.11398224D+00 -0.13730369D+00 -0.29463318D-01 -0.49019326D-01
 -0.44988566D-02  0.14592845D+00  0.14150151D+00  0.95456082D-01 -0.36159184D+00
 -0.35062245D+00 -0.23652784D+00 -0.39134355D+00 -0.37947161D+00 -0.25598930D+00
  0.33427752D-01 -0.74890085D-01 -0.82544995D-01  0.57266505D-02 -0.71286189D-02
 -0.12193769D-01  0.19494494D-03 -0.75019982D-04 -0.24192592D-03 -0.29525757D-02
 -0.74819187D-02  0.10434494D-01  0.11377849D-02 -0.49148365D-02  0.33527394D-01
  0.11694448D-02 -0.38985158D-02  0.27290710D-02 -0.14863509D-03 -0.15701189D-02
  0.43845293D-02  0.21232925D-03 -0.35385929D-03  0.14153004D-03 -0.48296028D-04
 -0.13662952D-03 -0.24566511D-03 -0.79066936D-03 -0.17360975D-02 -0.93009712D-03
  0.17651700D-02  0.38302255D-02  0.31505945D-02  0.60683806D-03  0.13780669D-02
 -0.36030312D-03 -0.42334882D-03 -0.41058753D-04 -0.31326283D-04 -0.14625821D-03
  0.67315915D-04  0.21639907D-03 -0.25021881D-03  0.55860343D-04 -0.12242022D-03
  0.68899342D-03  0.35236587D-04  0.73718624D-02  0.13295457D-01  0.19604144D-01
  0.24174935D-01  0.55243689D-02  0.39920380D-04  0.24294535D-02  0.20057201D-02
 -0.12023847D-02  0.14832007D-02  0.38678540D-02  0.97633327D-03  0.19828842D-03
  0.14728719D-03 -0.22351084D-03 -0.75147031D-03  0.12906805D-02 -0.53921018D-03
  0.13965691D-02  0.95726444D-03  0.13229149D-02 -0.70149609D-04  0.78337669D-04
 -0.81880600D-05  0.13844405D-03  0.85879504D-04  0.55573026D-04 -0.10966063D-01
 -0.19777746D-01 -0.29162274D-01 -0.97327319D-02  0.14322548D-02  0.96666401D-04
  0.20570683D-02  0.81228844D-02 -0.14776508D-01  0.11215519D-02 -0.19207407D-03
 -0.44629634D-02  0.18032842D-03 -0.28899416D-03 -0.31936939D-03  0.26643860D-02
 -0.42744851D-03 -0.22369375D-02 -0.10225681D-02  0.76891489D-03  0.90211175D-02
 -0.48954709D-04  0.15713835D-03 -0.10818364D-03 -0.10316379D-03  0.81015246D-04
  0.22918549D-03
MO    4     MO 0.0        OCC NO =    2.0000000  ORB. ENERGY =    0.000000
  0.87535672D-02  0.16315210D-01  0.27664731D-01  0.41867629D-01  0.52226567D-01
  0.44818164D-01  0.17162976D-01  0.93333721D-03  0.10014096D-01  0.36913842D-01
  0.10793391D+00  0.13006561D+00 -0.15667781D+00 -0.95374434D-01 -0.62873363D-01
 -0.60378658D-02 -0.19363492D-01 -0.18776074D-01 -0.12666229D-01  0.11816678D+01
  0.11458203D+01  0.77296358D+00 -0.53127516D+00 -0.51515820D+00 -0.34752268D+00
 -0.48134476D-02  0.24453324D+00 -0.11317572D+00 -0.12465359D-02  0.23039182D-01
 -0.16091475D-01 -0.47794490D-04  0.22927276D-03 -0.30891536D-03 -0.27279469D-02
 -0.11351294D-01  0.14079241D-01 -0.52950580D-02 -0.74389332D-03 -0.11051298D+00
  0.10926561D-02 -0.47885433D-02  0.36958872D-02 -0.10021620D-02  0.12273021D-03
 -0.14421975D-01  0.27292809D-03 -0.45604822D-03  0.18312012D-03 -0.12278236D-04
  0.44294057D-04  0.82624433D-03 -0.53037795D-04  0.55262684D-02 -0.17024426D-02
  0.97757442D-03 -0.12024854D-01  0.30149546D-02 -0.81846103D-03 -0.45539517D-02
  0.20923730D-02  0.57984983D-03 -0.14983868D-04  0.97903605D-04 -0.53581264D-04
  0.50613809D-04 -0.68993417D-03  0.42240297D-05 -0.56622042D-05  0.39622335D-03
  0.15651976D-03  0.10285948D-03 -0.31063588D-01 -0.56024461D-01 -0.82608035D-01
 -0.43680984D-01 -0.18441002D-02  0.18440957D-03 -0.24391470D-02 -0.18523178D-01
 -0.31427585D-01 -0.79180193D-03 -0.23378176D-02 -0.10507315D-01 -0.43264527D-04
  0.55135329D-03 -0.47289266D-03  0.54743979D-02 -0.98423965D-03 -0.44901582D-02
 -0.14430403D-02 -0.16293287D-02 -0.18074456D-01 -0.50835118D-04  0.28609360D-03
 -0.23525849D-03 -0.26829557D-04 -0.49622312D-04 -0.54486408D-03  0.29605058D-01
  0.53393941D-01  0.78729335D-01  0.68525217D-01  0.11654753D-01 -0.52728392D-05
 -0.42219801D-03 -0.15337011D-01  0.13361239D-01 -0.27668656D-03 -0.10019715D-01
  0.74513777D-02 -0.51721522D-04 -0.10872588D-03 -0.16186649D-03 -0.59843136D-02
  0.48779206D-02  0.11063930D-02  0.26539843D-03 -0.10346913D-03 -0.16152105D-01
 -0.14121648D-03  0.44856283D-04  0.96360198D-04  0.20492247D-04 -0.88969256D-05
 -0.40594329D-03
MO    5     MO 0.0        OCC NO =    2.0000000  ORB. ENERGY =    0.000000
  0.19013397D+00  0.35437846D+00  0.60089847D+00  0.90939594D+00  0.11343998D+01
  0.97348376D+00  0.37279256D+00 -0.10310727D-02 -0.11062733D-01 -0.40779318D-01
 -0.11923633D+00 -0.14368558D+00  0.17308451D+00  0.12898017D+00  0.69929758D-01
  0.66586316D-02  0.26641268D+00  0.25833069D+00  0.17426835D+00  0.79258790D+00
  0.76854366D+00  0.51845501D+00  0.55526599D+00  0.53842123D+00  0.36321578D+00
  0.59377724D-01  0.16386702D+00  0.11853700D+00  0.92775656D-02  0.15311100D-01
  0.16998092D-01  0.27648546D-03  0.14585332D-03  0.32060574D-03  0.59270930D-03
  0.13998548D-01 -0.14591257D-01 -0.23218688D-02 -0.12646417D-01 -0.74607377D-01
 -0.13851188D-02  0.51811342D-02 -0.37960154D-02  0.10057533D-04 -0.28186066D-02
 -0.96858303D-02 -0.27142493D-03  0.45947319D-03 -0.18804826D-03  0.71106963D-04
 -0.12630659D-03  0.56161498D-03 -0.16622213D-02  0.36542856D-02  0.20461860D-02
  0.34465227D-02 -0.78179290D-02 -0.22728797D-02  0.15401413D-02 -0.31449277D-02
 -0.38656783D-02  0.32706963D-03 -0.66040703D-04  0.62865220D-04 -0.16389268D-04
  0.11110709D-03 -0.45385518D-03 -0.10757964D-03  0.87015023D-04  0.26525953D-03
  0.15674745D-03  0.82563160D-04 -0.19163376D-01 -0.34561938D-01 -0.50961557D-01
 -0.51063931D-01 -0.10020126D-01 -0.34617564D-04  0.24725731D-02 -0.93990196D-02
 -0.51291952D-02  0.11577026D-02 -0.85513420D-02 -0.45716072D-02  0.25262064D-03
 -0.24934877D-03  0.20265335D-03  0.45262644D-02 -0.44191123D-02 -0.10715210D-03
  0.41917964D-03  0.33733961D-03 -0.11478621D-01  0.15274824D-03 -0.11209284D-03
 -0.40655396D-04  0.12708660D-03  0.71621768D-04 -0.29007086D-03  0.22011544D-01
  0.39698726D-01  0.58535748D-01  0.24998269D-01 -0.86505661D-03 -0.16327651D-03
  0.36369607D-02 -0.13813668D-01  0.25285842D-01  0.19646961D-02  0.58212244D-04
  0.75998376D-02  0.28769266D-03  0.52924314D-03  0.41398654D-03 -0.33544191D-02
 -0.33823570D-03  0.36926548D-02 -0.18050753D-02  0.13238221D-02 -0.11815408D-01
  0.78764734D-04 -0.26313665D-03  0.18437192D-03 -0.19499182D-03  0.94651766D-04
 -0.36247812D-03
END DATA
 TOTAL ENERGY =    -76.466195734020 THE VIRIAL(-V/T)=   2.00599447
