 61
GAUSSIAN              5 MOL ORBITALS    126 PRIMITIVES        3 NUCLEI   B3LYP   B3LYP   B3LYP
  O    1    (CENTRE  1)   0.00000000  0.09448631  0.00815606  CHARGE =  8.0
  H    2    (CENTRE  2)   0.00000000 -1.44255835 -1.09730160  CHARGE =  1.0
  H    3    (CENTRE  3)  -0.09448631  1.44255835 -1.09730160  CHARGE =  1.0
CENTRE ASSIGNMENTS    1  1  1  1  1  1  1  1  1  1  1  1  1  1  1  1  1  1  1  1
CENTRE ASSIGNMENTS    1  1  1  1  1  1  1  1  1  1  1  1  1  1  1  1  1  1  1  1
CENTRE ASSIGNMENTS    1  1  1  1  1  1  1  1  1  1  1  1  1  1  1  1  1  1  1  1
CENTRE ASSIGNMENTS    1  1  1  1  1  1  1  1  1  1  1  1  2  2  2  2  2  2  2  2
CENTRE ASSIGNMENTS    2  2  2  2  2  2  2  2  2  2  2  2  2  2  2  2  2  2  2  3
CENTRE ASSIGNMENTS    3  3  3  3  3  3  3  3  3  3  3  3  3  3  3  3  3  3  3  3
CENTRE ASSIGNMENTS    3  3  3  3  3  3
TYPE ASSIGNMENTS      1  1  1  1  1  1  1  1  1  1  1  1  1  1  1  1  2  2  2  3
TYPE ASSIGNMENTS      3  3  4  4  4  2  3  4  2  3  4  2  3  4  5  6  7  8  9 10
TYPE ASSIGNMENTS      5  6  7  8  9 10  5  6  7  8  9 10 11 12 13 17 14 15 18 19
TYPE ASSIGNMENTS     16 20 11 12 13 17 14 15 18 19 16 20  1  1  1  1  1  1  2  3
TYPE ASSIGNMENTS      4  2  3  4  2  3  4  5  6  7  8  9 10  5  6  7  8  9 10  1
TYPE ASSIGNMENTS      1  1  1  1  1  2  3  4  2  3  4  2  3  4  5  6  7  8  9 10
TYPE ASSIGNMENTS      5  6  7  8  9 10
EXPONENTS  0.1533000D+05 0.2299000D+04 0.5224000D+03 0.1473000D+03 0.4755000D+02
EXPONENTS  0.1676000D+02 0.6207000D+01 0.5224000D+03 0.1473000D+03 0.4755000D+02
EXPONENTS  0.1676000D+02 0.6207000D+01 0.6882000D+00 0.1752000D+01 0.2384000D+00
EXPONENTS  0.7376000D-01 0.3446000D+02 0.7749000D+01 0.2280000D+01 0.3446000D+02
EXPONENTS  0.7749000D+01 0.2280000D+01 0.3446000D+02 0.7749000D+01 0.2280000D+01
EXPONENTS  0.7156000D+00 0.7156000D+00 0.7156000D+00 0.2140000D+00 0.2140000D+00
EXPONENTS  0.2140000D+00 0.5974000D-01 0.5974000D-01 0.5974000D-01 0.2314000D+01
EXPONENTS  0.2314000D+01 0.2314000D+01 0.2314000D+01 0.2314000D+01 0.2314000D+01
EXPONENTS  0.6450000D+00 0.6450000D+00 0.6450000D+00 0.6450000D+00 0.6450000D+00
EXPONENTS  0.6450000D+00 0.2140000D+00 0.2140000D+00 0.2140000D+00 0.2140000D+00
EXPONENTS  0.2140000D+00 0.2140000D+00 0.1428000D+01 0.1428000D+01 0.1428000D+01
EXPONENTS  0.1428000D+01 0.1428000D+01 0.1428000D+01 0.1428000D+01 0.1428000D+01
EXPONENTS  0.1428000D+01 0.1428000D+01 0.5000000D+00 0.5000000D+00 0.5000000D+00
EXPONENTS  0.5000000D+00 0.5000000D+00 0.5000000D+00 0.5000000D+00 0.5000000D+00
EXPONENTS  0.5000000D+00 0.5000000D+00 0.3387000D+02 0.5095000D+01 0.1159000D+01
EXPONENTS  0.3258000D+00 0.1027000D+00 0.2526000D-01 0.1407000D+01 0.1407000D+01
EXPONENTS  0.1407000D+01 0.3880000D+00 0.3880000D+00 0.3880000D+00 0.1020000D+00
EXPONENTS  0.1020000D+00 0.1020000D+00 0.1057000D+01 0.1057000D+01 0.1057000D+01
EXPONENTS  0.1057000D+01 0.1057000D+01 0.1057000D+01 0.2470000D+00 0.2470000D+00
EXPONENTS  0.2470000D+00 0.2470000D+00 0.2470000D+00 0.2470000D+00 0.3387000D+02
EXPONENTS  0.5095000D+01 0.1159000D+01 0.3258000D+00 0.1027000D+00 0.2526000D-01
EXPONENTS  0.1407000D+01 0.1407000D+01 0.1407000D+01 0.3880000D+00 0.3880000D+00
EXPONENTS  0.3880000D+00 0.1020000D+00 0.1020000D+00 0.1020000D+00 0.1057000D+01
EXPONENTS  0.1057000D+01 0.1057000D+01 0.1057000D+01 0.1057000D+01 0.1057000D+01
EXPONENTS  0.2470000D+00 0.2470000D+00 0.2470000D+00 0.2470000D+00 0.2470000D+00
EXPONENTS  0.2470000D+00
MO    1     MO 0.0        OCC NO =    2.0000000  ORB. ENERGY =    0.000000
 -0.68298065D-01 -0.12729636D+00 -0.21584887D+00 -0.32666431D+00 -0.40748798D+00
 -0.34968531D+00 -0.13391090D+00 -0.41716559D-03 -0.44759131D-02 -0.16499058D-01
 -0.48242279D-01 -0.58134292D-01  0.70028915D-01  0.34246816D-01 -0.25474498D-01
 -0.68793935D-02 -0.78662994D-01 -0.76276643D-01 -0.51455773D-01 -0.38778338D+00
 -0.37601943D+00 -0.25366049D+00 -0.13961838D+01 -0.13538286D+01 -0.91328479D+00
 -0.17305098D-01 -0.86816335D-01 -0.30474313D+00 -0.23119380D-02 -0.11064051D-01
 -0.36091747D-01 -0.60720950D-04 -0.13342524D-03 -0.70396378D-03 -0.43580492D-01
  0.63255835D-02  0.37254908D-01 -0.20308749D-02  0.75755053D-02  0.28990183D-01
 -0.68151039D-02 -0.40529345D-02  0.10868038D-01  0.22346374D-03  0.16242465D-02
  0.85615337D-02  0.65189115D-03 -0.11985858D-02  0.54669465D-03  0.16286447D-03
 -0.16900545D-04  0.80375580D-03  0.80216905D-03 -0.25601015D-02 -0.82990502D-03
 -0.42520239D-03  0.58460482D-02  0.18027541D-01 -0.19813047D-02  0.18342564D-02
 -0.15537826D-01  0.18800850D-02  0.19993482D-05  0.22568002D-03 -0.57766091D-03
  0.70503574D-04  0.56923670D-03  0.32981417D-03 -0.76501618D-04 -0.12462768D-02
  0.14031686D-02 -0.25372118D-03  0.38824601D-01  0.70021766D-01  0.10324705D+00
  0.68498788D-01  0.10168895D-01  0.59125952D-04 -0.95283446D-03  0.30775329D-01
  0.89263603D-02 -0.49010681D-03  0.12981089D-01  0.27874977D-02 -0.72334568D-04
  0.15032893D-03 -0.81195402D-03 -0.52094020D-02  0.73631079D-02 -0.21537059D-02
 -0.47230187D-03 -0.22994486D-03  0.11698418D-01 -0.26241211D-03  0.25771658D-03
  0.46955248D-05 -0.49090175D-04  0.11983022D-04  0.75659654D-04  0.22931520D-01
  0.41357941D-01  0.60982260D-01  0.41595113D-01  0.52993671D-02  0.10340236D-03
  0.52408809D-03 -0.28742434D-01  0.10742403D-03  0.39997036D-04 -0.11091813D-01
 -0.20716260D-02 -0.76874465D-04 -0.20148213D-03 -0.10785116D-02 -0.31637800D-02
  0.71174978D-02 -0.39537178D-02 -0.79192393D-03 -0.18905498D-05 -0.70396691D-02
  0.17939135D-04  0.25964929D-03 -0.27758842D-03  0.41571953D-04 -0.67966180D-04
  0.78295298D-03
MO    2     MO 0.0        OCC NO =    2.0000000  ORB. ENERGY =    0.000000
  0.44357644D+00  0.82675356D+00  0.14018768D+01  0.21215915D+01  0.26465182D+01
  0.22711063D+01  0.86971308D+00  0.43021996D-03  0.46159778D-02  0.17015363D-01
  0.49751925D-01  0.59953488D-01 -0.72220330D-01  0.71702236D-02 -0.16172530D-01
 -0.12046806D-02 -0.16465083D-01 -0.15965592D-01 -0.10770294D-01 -0.72337511D+00
 -0.70143053D+00 -0.47318089D+00 -0.44035380D-01 -0.42699506D-01 -0.28804835D-01
 -0.42800882D-02 -0.14756929D+00 -0.11023229D-01 -0.11526513D-02 -0.13369967D-01
 -0.38477049D-02 -0.44854399D-04 -0.12294319D-03 -0.77464219D-04  0.16112245D-02
 -0.21815893D-02  0.57036477D-03  0.31766419D-02 -0.70167274D-03  0.66283497D-01
  0.60858023D-03 -0.82817911D-03  0.21959887D-03  0.46282415D-03  0.11554156D-03
  0.75856639D-02 -0.12157009D-03  0.42431022D-04  0.79139072D-04 -0.34768365D-04
  0.66899462D-04 -0.67005491D-03  0.46624975D-04 -0.33592392D-02 -0.73761950D-04
  0.26196640D-03  0.65813802D-02  0.74254355D-03 -0.40184133D-03  0.34963375D-02
 -0.52125770D-03 -0.15845578D-03 -0.67306413D-05 -0.54766018D-04  0.17603537D-04
  0.16650446D-04  0.34479508D-03 -0.73028193D-04  0.35414781D-05 -0.18049703D-03
  0.20217583D-04 -0.77972330D-04  0.15127340D-01  0.27282781D-01  0.40228445D-01
  0.32253658D-01  0.55006517D-02 -0.25748547D-04 -0.30802954D-03  0.62661317D-02
  0.83380276D-02 -0.19342427D-03  0.38657356D-02  0.43198850D-02 -0.39660627D-04
  0.47792381D-04  0.79849460D-04 -0.24213158D-02  0.14693420D-02  0.95197380D-03
 -0.19014181D-03 -0.90485484D-04  0.68931205D-02 -0.11062108D-03  0.49504150D-04
  0.61116928D-04 -0.15410561D-04 -0.12605860D-04  0.44383339D-03 -0.22578629D-01
 -0.40721487D-01 -0.60043809D-01 -0.38670239D-01 -0.33472787D-02  0.69620912D-04
 -0.20806425D-02  0.16205478D-01 -0.21310390D-01 -0.80433521D-03  0.45832375D-02
 -0.74664443D-02 -0.47437533D-04 -0.21880229D-03 -0.16105812D-03  0.54192499D-02
 -0.25383760D-02 -0.28808739D-02  0.15554460D-02 -0.15240744D-02  0.16511038D-01
 -0.45575666D-04  0.16469314D-03 -0.11911748D-03  0.22073752D-04 -0.31963491D-04
  0.13124785D-03
MO    3     MO 0.0        OCC NO =    2.0000000  ORB. ENERGY =    0.000000
  0.23775335D+00  0.44313315D+00  0.75139453D+00  0.11371557D+01  0.14185121D+01
  0.12172944D+01  0.46615910D+00  0.18036337D-03  0.19351806D-02  0.71334400D-02
  0.20857760D-01  0.25134615D-01 -0.30277308D-01  0.10607403D-01 -0.29325408D-01
 -0.36141767D-02 -0.12452761D+00 -0.12074989D+00 -0.81457164D-01  0.12172268D+01
  0.11803006D+01  0.79622380D+00 -0.52091776D+00 -0.50511500D+00 -0.34074760D+00
 -0.26879914D-01  0.25147847D+00 -0.10734777D+00 -0.35222699D-02  0.23207101D-01
 -0.11013626D-01 -0.89669677D-04  0.23124354D-03 -0.21213509D-03 -0.13362512D-01
 -0.15146024D-02  0.14877115D-01 -0.62655054D-02  0.89353065D-02 -0.11682914D+00
 -0.23027927D-03 -0.37469908D-02  0.39772701D-02 -0.40171014D-03  0.15044159D-02
 -0.14624484D-01  0.57114589D-03 -0.66450955D-03  0.93363670D-04  0.14125875D-03
 -0.37287797D-04  0.10876436D-02  0.10238809D-02  0.54874563D-02 -0.50576441D-03
 -0.23065515D-02 -0.12626019D-01  0.52663400D-02 -0.76509121D-03 -0.38363497D-02
 -0.37490467D-02  0.14740533D-02  0.14150988D-04  0.19897059D-03 -0.40702348D-03
 -0.58353437D-05 -0.63689629D-03 -0.42545717D-03 -0.36617621D-04  0.39984514D-04
  0.16465276D-02 -0.11204870D-03 -0.23931672D-01 -0.43161756D-01 -0.63641984D-01
 -0.39612987D-01 -0.39571019D-02  0.15847069D-03 -0.13949821D-02 -0.10357020D-01
 -0.21160608D-01 -0.73313075D-03 -0.24536000D-02 -0.86099256D-02 -0.97976162D-04
  0.29703069D-03 -0.47353685D-03  0.47027841D-02 -0.14640237D-02 -0.32387604D-02
 -0.68226323D-03 -0.50354629D-03 -0.15107396D-01  0.52609673D-04  0.12674772D-03
 -0.17935739D-03 -0.81038916D-04 -0.17109712D-04 -0.78856693D-03  0.39796769D-01
  0.71775112D-01  0.10583236D+00  0.77851772D-01  0.92832667D-02 -0.65968160D-04
  0.11143292D-02 -0.26050547D-01  0.26064387D-01  0.24025648D-03 -0.95981635D-02
  0.94063247D-02 -0.99532068D-04  0.33461788D-03 -0.28786501D-03 -0.68830759D-02
  0.42799072D-02  0.26031687D-02 -0.11905040D-02  0.11616827D-02 -0.19796370D-01
  0.72394755D-04 -0.19529952D-03  0.12290476D-03  0.70762646D-04 -0.32889678D-04
  0.12225777D-03
MO    4     MO 0.0        OCC NO =    2.0000000  ORB. ENERGY =    0.000000
 -0.12575484D-01 -0.23438634D-01 -0.39743498D-01 -0.60147558D-01 -0.75029338D-01
 -0.64386334D-01 -0.24656545D-01  0.11916998D-02  0.12786157D-01  0.47132181D-01
  0.13781173D+00  0.16606984D+00 -0.20004872D+00 -0.12459162D+00 -0.73058999D-01
 -0.64514512D-02  0.12020802D+01  0.11656135D+01  0.78631596D+00  0.19033385D-01
  0.18455981D-01  0.12450296D-01 -0.52106789D+00 -0.50526058D+00 -0.34084580D+00
  0.27157560D+00  0.55622079D-02 -0.11125452D+00  0.44676236D-01  0.11506485D-02
 -0.17197122D-01  0.14405797D-02  0.36545800D-04 -0.35377553D-03  0.28406806D-03
 -0.14831829D-01  0.14547761D-01  0.41454202D-02 -0.49354313D-01  0.14287247D-02
  0.15516853D-02 -0.52134633D-02  0.36617780D-02 -0.31712885D-03 -0.12654806D-01
 -0.93263033D-03  0.18455477D-03 -0.37825892D-03  0.19370415D-03 -0.17582119D-03
 -0.85017107D-03 -0.10645132D-04 -0.71713417D-02  0.62985218D-03 -0.22886342D-02
  0.15345684D-01 -0.18574036D-02  0.29494676D-02  0.61683406D-02 -0.32152910D-04
  0.39164350D-02 -0.12824447D-02 -0.24810157D-03  0.26542220D-04  0.14654142D-04
  0.37838778D-03 -0.18347694D-03  0.57929878D-04  0.36591691D-03  0.10385028D-03
 -0.10189230D-03  0.79727633D-03 -0.39611307D-02 -0.71440623D-02 -0.10533916D-01
  0.81886015D-02  0.51138218D-02  0.99052525D-04  0.15161650D-01 -0.49722705D-02
 -0.11220856D-01  0.82600349D-02  0.33786975D-02 -0.23118829D-02  0.13124826D-02
  0.45155714D-03 -0.31579622D-03  0.59922225D-04  0.17927907D-02 -0.18527129D-02
  0.78033175D-02  0.54269943D-02 -0.20957524D-02 -0.12370388D-03  0.22261497D-03
 -0.98911083D-04  0.78428360D-03  0.44389340D-03 -0.39357950D-04 -0.59605366D-02
 -0.10750073D-01 -0.15850977D-01  0.74282789D-02  0.49145577D-02  0.97541237D-04
  0.17755404D-01  0.69779954D-02 -0.14179410D-01  0.10083514D-01 -0.27687196D-02
 -0.24921578D-02  0.15143185D-02 -0.31920233D-03 -0.33954824D-03  0.10723685D-02
  0.11372347D-02 -0.22096032D-02 -0.88158778D-02  0.67485000D-02  0.35609172D-02
 -0.33717607D-04  0.12846433D-03 -0.94746721D-04 -0.96638170D-03  0.66533028D-03
  0.81029362D-04
MO    5     MO 0.0        OCC NO =    2.0000000  ORB. ENERGY =    0.000000
  0.34373082D-01  0.64065772D-01  0.10863252D+00  0.16440377D+00  0.20508074D+00
  0.17598979D+00  0.67394739D-01 -0.11058554D-02 -0.11865102D-01 -0.43737001D-01
 -0.12788443D+00 -0.15410695D+00  0.18563815D+00  0.11831295D+00  0.66158461D-01
  0.57020467D-02  0.13190454D+01  0.12790303D+01  0.86282632D+00  0.89926121D-01
  0.87198088D-01  0.58823315D-01  0.32180456D+00  0.31204218D+00  0.21050181D+00
  0.29754574D+00  0.18500061D-01  0.67336939D-01  0.48903310D-01  0.23639233D-02
  0.10593625D-01  0.15597280D-02  0.65912693D-04  0.17198853D-03 -0.65533031D-02
  0.14106856D-01 -0.75535533D-02  0.15858915D-02 -0.53777060D-01 -0.78045041D-02
 -0.27128763D-02  0.45562880D-02 -0.18434117D-02 -0.12502323D-02 -0.13641062D-01
 -0.17767575D-03 -0.19955457D-03  0.28560614D-03 -0.86051568D-04 -0.25706895D-03
 -0.89769110D-03  0.20239905D-04 -0.77320451D-02  0.51207376D-03  0.14994846D-02
  0.15918781D-01 -0.20693304D-02  0.11616107D-02  0.72773542D-02  0.53310910D-03
 -0.56600645D-02 -0.79198899D-03 -0.27728062D-03  0.13750442D-04 -0.78234469D-04
  0.44116382D-03  0.13081806D-03  0.18081351D-04  0.39067803D-03 -0.17206939D-03
  0.21662206D-03  0.76966928D-03  0.38669519D-02  0.69742069D-02  0.10283464D-01
 -0.71253805D-02 -0.46065792D-02 -0.85022535D-04  0.16724945D-01  0.60365001D-02
  0.85599268D-02  0.91655789D-02 -0.23390397D-02  0.11812045D-02  0.14468298D-02
 -0.31825361D-03  0.13702796D-03 -0.39433292D-04 -0.10251599D-02  0.10645932D-02
  0.86667628D-02  0.59538311D-02  0.13448817D-02  0.97071070D-04 -0.14337529D-03
  0.46304223D-04  0.87651935D-03  0.46570542D-03 -0.30258033D-04  0.72753926D-02
  0.13121470D-01  0.19347600D-01 -0.35899644D-02 -0.41610878D-02 -0.90379957D-04
  0.20632678D-01 -0.66761962D-02  0.12199169D-01  0.10756724D-01  0.27105110D-02
  0.15922217D-02  0.16126526D-02  0.40314930D-03  0.13872361D-03 -0.25427112D-05
 -0.13757423D-02  0.13782850D-02 -0.95976873D-02  0.78508897D-02 -0.26505286D-02
  0.15763536D-03 -0.18175020D-03  0.24114836D-04 -0.99679400D-03  0.70307428D-03
  0.81020309D-04
END DATA
 TOTAL ENERGY =    -76.463283525861 THE VIRIAL(-V/T)=   2.00582673
