 62
GAUSSIAN              5 MOL ORBITALS    126 PRIMITIVES        3 NUCLEI   B3LYP   B3LYP   B3LYP   B3LYP
  O    1    (CENTRE  1)   0.00000000  0.00000000 -0.08633025  CHARGE =  8.0
  H    2    (CENTRE  2)   0.00000000 -1.44255835 -1.09730160  CHARGE =  1.0
  H    3    (CENTRE  3)   0.09448631  1.44255835 -1.09730160  CHARGE =  1.0
CENTRE ASSIGNMENTS    1  1  1  1  1  1  1  1  1  1  1  1  1  1  1  1  1  1  1  1
CENTRE ASSIGNMENTS    1  1  1  1  1  1  1  1  1  1  1  1  1  1  1  1  1  1  1  1
CENTRE ASSIGNMENTS    1  1  1  1  1  1  1  1  1  1  1  1  1  1  1  1  1  1  1  1
CENTRE ASSIGNMENTS    1  1  1  1  1  1  1  1  1  1  1  1  2  2  2  2  2  2  2  2
CENTRE ASSIGNMENTS    2  2  2  2  2  2  2  2  2  2  2  2  2  2  2  2  2  2  2  3
CENTRE ASSIGNMENTS    3  3  3  3  3  3  3  3  3  3  3  3  3  3  3  3  3  3  3  3
CENTRE ASSIGNMENTS    3  3  3  3  3  3
TYPE ASSIGNMENTS      1  1  1  1  1  1  1  1  1  1  1  1  1  1  1  1  2  2  2  3
TYPE ASSIGNMENTS      3  3  4  4  4  2  3  4  2  3  4  2  3  4  5  6  7  8  9 10
TYPE ASSIGNMENTS      5  6  7  8  9 10  5  6  7  8  9 10 11 12 13 17 14 15 18 19
TYPE ASSIGNMENTS     16 20 11 12 13 17 14 15 18 19 16 20  1  1  1  1  1  1  2  3
TYPE ASSIGNMENTS      4  2  3  4  2  3  4  5  6  7  8  9 10  5  6  7  8  9 10  1
TYPE ASSIGNMENTS      1  1  1  1  1  2  3  4  2  3  4  2  3  4  5  6  7  8  9 10
TYPE ASSIGNMENTS      5  6  7  8  9 10
EXPONENTS  0.1533000D+05 0.2299000D+04 0.5224000D+03 0.1473000D+03 0.4755000D+02
EXPONENTS  0.1676000D+02 0.6207000D+01 0.5224000D+03 0.1473000D+03 0.4755000D+02
EXPONENTS  0.1676000D+02 0.6207000D+01 0.6882000D+00 0.1752000D+01 0.2384000D+00
EXPONENTS  0.7376000D-01 0.3446000D+02 0.7749000D+01 0.2280000D+01 0.3446000D+02
EXPONENTS  0.7749000D+01 0.2280000D+01 0.3446000D+02 0.7749000D+01 0.2280000D+01
EXPONENTS  0.7156000D+00 0.7156000D+00 0.7156000D+00 0.2140000D+00 0.2140000D+00
EXPONENTS  0.2140000D+00 0.5974000D-01 0.5974000D-01 0.5974000D-01 0.2314000D+01
EXPONENTS  0.2314000D+01 0.2314000D+01 0.2314000D+01 0.2314000D+01 0.2314000D+01
EXPONENTS  0.6450000D+00 0.6450000D+00 0.6450000D+00 0.6450000D+00 0.6450000D+00
EXPONENTS  0.6450000D+00 0.2140000D+00 0.2140000D+00 0.2140000D+00 0.2140000D+00
EXPONENTS  0.2140000D+00 0.2140000D+00 0.1428000D+01 0.1428000D+01 0.1428000D+01
EXPONENTS  0.1428000D+01 0.1428000D+01 0.1428000D+01 0.1428000D+01 0.1428000D+01
EXPONENTS  0.1428000D+01 0.1428000D+01 0.5000000D+00 0.5000000D+00 0.5000000D+00
EXPONENTS  0.5000000D+00 0.5000000D+00 0.5000000D+00 0.5000000D+00 0.5000000D+00
EXPONENTS  0.5000000D+00 0.5000000D+00 0.3387000D+02 0.5095000D+01 0.1159000D+01
EXPONENTS  0.3258000D+00 0.1027000D+00 0.2526000D-01 0.1407000D+01 0.1407000D+01
EXPONENTS  0.1407000D+01 0.3880000D+00 0.3880000D+00 0.3880000D+00 0.1020000D+00
EXPONENTS  0.1020000D+00 0.1020000D+00 0.1057000D+01 0.1057000D+01 0.1057000D+01
EXPONENTS  0.1057000D+01 0.1057000D+01 0.1057000D+01 0.2470000D+00 0.2470000D+00
EXPONENTS  0.2470000D+00 0.2470000D+00 0.2470000D+00 0.2470000D+00 0.3387000D+02
EXPONENTS  0.5095000D+01 0.1159000D+01 0.3258000D+00 0.1027000D+00 0.2526000D-01
EXPONENTS  0.1407000D+01 0.1407000D+01 0.1407000D+01 0.3880000D+00 0.3880000D+00
EXPONENTS  0.3880000D+00 0.1020000D+00 0.1020000D+00 0.1020000D+00 0.1057000D+01
EXPONENTS  0.1057000D+01 0.1057000D+01 0.1057000D+01 0.1057000D+01 0.1057000D+01
EXPONENTS  0.2470000D+00 0.2470000D+00 0.2470000D+00 0.2470000D+00 0.2470000D+00
EXPONENTS  0.2470000D+00
MO    1     MO 0.0        OCC NO =    2.0000000  ORB. ENERGY =    0.000000
  0.19961272D-01  0.37204528D-01  0.63085506D-01  0.95473205D-01  0.11909530D+00
  0.10220148D+00  0.39137739D-01  0.35648292D-03  0.38248278D-02  0.14099036D-01
  0.41224753D-01  0.49677832D-01 -0.59842213D-01 -0.34658457D-01  0.34453595D-01
  0.74599052D-02 -0.46114610D-01 -0.44715659D-01 -0.30164920D-01 -0.35646988D-01
 -0.34565587D-01 -0.23317741D-01  0.15157209D+01  0.14697394D+01  0.99147753D+00
 -0.97548047D-02 -0.72755001D-02  0.32862001D+00 -0.87002525D-03 -0.62525429D-03
  0.38461365D-01 -0.78204113D-05 -0.51079564D-05  0.80260466D-03  0.46203505D-01
 -0.84231546D-02 -0.37780350D-01 -0.37362819D-02  0.68955869D-02  0.30365827D-02
  0.60460529D-02  0.52543421D-02 -0.11300395D-01 -0.70988170D-04  0.13761095D-02
  0.37024229D-03 -0.99044588D-03  0.16225162D-02 -0.63207032D-03  0.17300428D-03
 -0.50669466D-04 -0.31657270D-04  0.71737503D-03 -0.18469608D-03  0.19003803D-04
 -0.53991950D-03  0.25643674D-03 -0.18385373D-01 -0.16122056D-02  0.29765148D-03
  0.18328362D-01  0.24184605D-02 -0.99522539D-05 -0.22589971D-05  0.68739819D-03
  0.10492645D-03  0.26440036D-04  0.16550943D-03 -0.75069691D-04 -0.19663045D-04
 -0.22277040D-02 -0.15346906D-03 -0.30697722D-01 -0.55364606D-01 -0.81635079D-01
 -0.56545422D-01 -0.72393254D-02 -0.82507949D-04 -0.57250307D-03 -0.32396187D-01
 -0.22490988D-02 -0.25157765D-03 -0.12416337D-01  0.11521775D-02 -0.26163879D-04
 -0.32200150D-04  0.12154764D-02  0.41731184D-02 -0.82680418D-02  0.40949234D-02
 -0.23777662D-03 -0.12927198D-03 -0.82231320D-02  0.15370421D-04 -0.17402476D-03
  0.15865434D-03 -0.31995918D-04  0.27591859D-04  0.86668344D-03 -0.32597895D-01
 -0.58791646D-01 -0.86688247D-01 -0.60123916D-01 -0.76857323D-02 -0.78471661D-04
  0.16507715D-02  0.33539198D-01 -0.36442192D-02  0.60201971D-03  0.12857263D-01
  0.58246538D-03 -0.23451517D-04  0.29473145D-04  0.12014986D-02  0.45130281D-02
 -0.84924013D-02  0.39793732D-02 -0.14814435D-02  0.49078001D-03  0.93103689D-02
  0.18407194D-04 -0.16783145D-03  0.14942426D-03  0.56301141D-05 -0.27116634D-04
 -0.83225227D-03
MO    2     MO 0.0        OCC NO =    2.0000000  ORB. ENERGY =    0.000000
  0.29010861D-01  0.54071475D-01  0.91685785D-01  0.13875669D+00  0.17308803D+00
  0.14853528D+00  0.56881121D-01  0.33515000D-04  0.35959396D-03  0.13255310D-02
  0.38757750D-02  0.46704974D-02 -0.56261090D-02 -0.82316417D-04 -0.15027148D-03
  0.10469558D-03  0.49957668D-02  0.48442133D-02  0.32678777D-02  0.14757797D+01
  0.14310099D+01  0.96535081D+00  0.29562679D-01  0.28665854D-01  0.19337816D-01
 -0.43866388D-04  0.29671744D+00  0.63171035D-02 -0.79847284D-03  0.23358040D-01
  0.58055421D-03 -0.43373509D-04  0.16934652D-03  0.11206111D-04  0.12468386D-02
 -0.54698867D-03 -0.69984992D-03  0.62001053D-02 -0.25123027D-02 -0.13492733D+00
  0.17262743D-03  0.44635161D-04 -0.21726259D-03  0.62312909D-03  0.15071944D-04
 -0.13511629D-01 -0.33097566D-04  0.43146927D-04 -0.10049361D-04 -0.95957548D-04
  0.94304783D-04  0.21528547D-02 -0.16293772D-03  0.74250215D-02  0.81549188D-06
  0.10006535D-02 -0.13184712D-01 -0.32283241D-03 -0.51184028D-03 -0.90903526D-02
  0.32038594D-03 -0.34266780D-03 -0.10923230D-04  0.17320709D-03  0.13830930D-04
  0.46766899D-04 -0.48070998D-03 -0.23507307D-05 -0.13997209D-04 -0.38911290D-04
 -0.39142059D-04 -0.43525992D-04 -0.40094502D-01 -0.72312086D-01 -0.10662413D+00
 -0.76152962D-01 -0.88115019D-02  0.85940303D-04 -0.13648998D-03 -0.28040300D-01
 -0.30027705D-01 -0.13088045D-03 -0.10023171D-01 -0.11464278D-01 -0.38743719D-04
  0.13435330D-03 -0.17783902D-03  0.82998503D-02 -0.62313874D-02 -0.20684628D-02
 -0.12538263D-03 -0.43811316D-04 -0.24367855D-01 -0.68962526D-04  0.17794482D-03
 -0.10898229D-03  0.20473898D-05 -0.30557597D-04 -0.42803609D-03  0.38168513D-01
  0.68838485D-01  0.10150231D+00  0.73023155D-01  0.85637708D-02 -0.87301899D-04
 -0.28226697D-02 -0.25745000D-01  0.29106687D-01 -0.11694497D-02 -0.93162477D-02
  0.11276732D-01 -0.57508155D-04  0.12498449D-03  0.22014915D-03 -0.77962511D-02
  0.56329108D-02  0.21633402D-02  0.22820186D-02 -0.19140962D-02 -0.23225958D-01
  0.66385785D-04 -0.17622481D-03  0.10983902D-03  0.40348727D-04 -0.39915870D-04
 -0.47321596D-03
MO    3     MO 0.0        OCC NO =    2.0000000  ORB. ENERGY =    0.000000
  0.36505410D+00  0.68040083D+00  0.11537152D+01  0.17460253D+01  0.21780289D+01
  0.18690729D+01  0.71575561D+00 -0.54283879D-03 -0.58243039D-02 -0.21469481D-01
 -0.62775503D-01 -0.75647534D-01  0.91125471D-01  0.98826179D-01  0.36392809D-01
  0.33416064D-02 -0.87302945D+00 -0.84654490D+00 -0.57107419D+00 -0.46713004D-01
 -0.45295900D-01 -0.30556347D-01  0.18449882D+00  0.17890179D+00  0.12068609D+00
 -0.19679346D+00 -0.87064949D-02  0.38918299D-01 -0.31877567D-01 -0.15165231D-03
  0.59392166D-02 -0.99911013D-03  0.23961160D-04  0.10106777D-03 -0.56402471D-02
  0.10800586D-01 -0.51603390D-02  0.79453543D-03  0.36009533D-01  0.57585712D-02
 -0.13533659D-02  0.24534173D-02 -0.11000513D-02  0.20548099D-03  0.86871721D-02
  0.40567554D-03 -0.11206050D-03  0.15555926D-03 -0.43498757D-04  0.19902726D-04
  0.51478992D-03 -0.12601901D-03  0.51646054D-02  0.57179316D-05  0.12662543D-02
 -0.11683453D-01 -0.58987916D-03  0.15991071D-02 -0.38103633D-02  0.57272536D-03
 -0.53978700D-02 -0.44980868D-03  0.10748683D-03 -0.50720171D-05 -0.21498511D-03
 -0.11579530D-03  0.36032910D-05 -0.19872747D-03 -0.20666520D-03  0.11612760D-04
  0.84368281D-03  0.79840175D-04  0.49762043D-02  0.89747893D-02  0.13233322D-01
 -0.48813666D-03 -0.22031013D-02 -0.54646325D-04 -0.12951586D-01  0.43321353D-02
  0.67405659D-02 -0.70615673D-02 -0.16185775D-02  0.92500228D-03 -0.10683244D-02
 -0.21757478D-03  0.72099770D-04  0.37788362D-03 -0.12330323D-02  0.85514868D-03
 -0.65435165D-02 -0.44604884D-02  0.20526074D-03  0.76853759D-04 -0.98712013D-04
  0.21858254D-04 -0.71290228D-03 -0.41098214D-03 -0.21551617D-04  0.97494922D-03
  0.17583611D-02  0.25927024D-02 -0.80616948D-02 -0.30782760D-02 -0.45557404D-04
 -0.12935860D-01 -0.75182571D-03  0.37220621D-02 -0.68337928D-02  0.30428123D-02
 -0.22048661D-03 -0.10491166D-02  0.27170377D-03  0.52644631D-04  0.16061605D-02
 -0.22464596D-02  0.64029903D-03  0.60579822D-02 -0.42696328D-02  0.24834575D-02
  0.11530472D-03 -0.12592746D-03  0.10622741D-04  0.68147983D-03 -0.40422089D-03
  0.92639795D-04
MO    4     MO 0.0        OCC NO =    2.0000000  ORB. ENERGY =    0.000000
  0.33601260D+00  0.62627224D+00  0.10619326D+01  0.16071221D+01  0.20047581D+01
  0.17203807D+01  0.65881441D+00  0.71265098D-03  0.76462773D-02  0.28185618D-01
  0.82413094D-01  0.99311785D-01 -0.11963157D+00 -0.34070619D-01 -0.39373647D-01
 -0.33824289D-02  0.12545426D+01  0.12164844D+01  0.82063316D+00 -0.71977162D-01
 -0.69793635D-01 -0.47082374D-01 -0.20163088D+00 -0.19551413D+00 -0.13189268D+00
  0.28293535D+00 -0.15518910D-01 -0.42312914D-01  0.45932036D-01 -0.20078186D-02
 -0.68530933D-02  0.14425943D-02 -0.51219130D-04 -0.11840609D-03  0.28061598D-02
 -0.78345764D-02  0.50284166D-02 -0.89059649D-03 -0.51910539D-01  0.45458373D-02
  0.16954996D-02 -0.29378358D-02  0.12423362D-02 -0.30100438D-03 -0.12508295D-01
  0.71659561D-03  0.14118435D-03 -0.20220756D-03  0.61023219D-04 -0.16578470D-04
 -0.75259602D-03 -0.17337370D-04 -0.75379816D-02 -0.71911139D-03 -0.27076766D-03
  0.17069023D-01  0.21565914D-02  0.11082780D-03  0.55449223D-02  0.74282325D-06
  0.70147518D-03  0.67986669D-04 -0.13171796D-03 -0.73808726D-05 -0.16775610D-04
  0.94968687D-04  0.32252457D-04 -0.18827327D-03  0.30018518D-03 -0.10109839D-04
  0.23860010D-03  0.14894805D-04 -0.30254691D-02 -0.54565581D-02 -0.80456918D-02
  0.36412229D-02  0.25959131D-02  0.48881408D-04  0.18602002D-01 -0.52326211D-02
 -0.64047293D-02  0.10149610D-01  0.73764205D-03 -0.11892169D-02  0.15398059D-02
  0.12107526D-03 -0.13944285D-03  0.10328555D-02 -0.35656098D-03 -0.67629450D-03
  0.93774977D-02  0.64310656D-02 -0.37432555D-02 -0.46787350D-04  0.72688676D-04
 -0.25901327D-04  0.10251274D-02  0.59736218D-03 -0.38983646D-04 -0.46524513D-02
 -0.83908875D-02 -0.12372359D-01  0.55474348D-03  0.22427079D-02  0.53027043D-04
  0.18936845D-01  0.50989082D-02 -0.76033697D-02  0.10082662D-01 -0.10128694D-02
 -0.16514137D-02  0.15253947D-02 -0.22831418D-03 -0.14630497D-03  0.73706131D-03
  0.24432676D-04 -0.76149399D-03 -0.95384864D-02  0.67029433D-02  0.42681488D-02
 -0.11625071D-03  0.14695622D-03 -0.30705511D-04 -0.99795443D-03  0.59555849D-03
  0.17948696D-04
MO    5     MO 0.0        OCC NO =    2.0000000  ORB. ENERGY =    0.000000
 -0.10878164D+00 -0.20275110D+00 -0.34379297D+00 -0.52029411D+00 -0.64902589D+00
 -0.55696077D+00 -0.21328639D+00 -0.14353165D-02 -0.15400004D-01 -0.56767314D-01
 -0.16598430D+00 -0.20001915D+00  0.24094426D+00  0.13527578D+00  0.83708053D-01
  0.72686640D-02  0.92578659D+00  0.89770158D+00  0.60558418D+00  0.79954359D-02
  0.77528834D-02  0.52300493D-02  0.54895894D+00  0.53230551D+00  0.35909015D+00
  0.20914761D+00  0.89818432D-03  0.11757978D+00  0.33919019D-01 -0.49635599D-03
  0.19108165D-01  0.10769805D-02 -0.30938438D-04  0.40693366D-03 -0.35116368D-02
  0.20291308D-01 -0.16779671D-01  0.16785105D-02 -0.38371410D-01 -0.22355963D-02
 -0.20313323D-02  0.59375098D-02 -0.39061775D-02  0.55325607D-03 -0.94154382D-02
 -0.69877655D-04 -0.16571430D-03  0.36382424D-03 -0.19810995D-03  0.35075839D-04
 -0.57371724D-03  0.74423426D-04 -0.56494023D-02 -0.23720586D-03  0.21812123D-02
  0.13302007D-01  0.10699382D-02 -0.24040744D-02  0.36462004D-02 -0.35832058D-03
 -0.41395624D-02 -0.11113131D-03 -0.10470993D-03  0.29437440D-05 -0.15186343D-03
  0.58829260D-04 -0.15890727D-05 -0.70645431D-04  0.25530054D-03 -0.72421593D-05
  0.52623572D-03  0.26772839D-04  0.75491051D-02  0.13615122D-01  0.20075489D-01
 -0.70468870D-02 -0.55929761D-02 -0.10771778D-03  0.13646553D-01  0.88053328D-02
  0.15577695D-01  0.74195795D-02 -0.34285302D-02  0.31280739D-02  0.11315865D-02
 -0.48318227D-03  0.39950470D-03 -0.74434100D-03 -0.15209736D-02  0.22653146D-02
  0.68085044D-02  0.47529714D-02  0.48497283D-02  0.14148970D-03 -0.26154340D-03
  0.12005369D-03  0.74487541D-03  0.46208746D-03  0.63822613D-04  0.95566756D-02
  0.17235858D-01  0.25414262D-01 -0.31715750D-02 -0.51485552D-02 -0.11253933D-03
  0.12882215D-01 -0.11044726D-01  0.17051308D-01  0.75608432D-02  0.24404744D-02
  0.37129177D-02  0.11581547D-02  0.41747129D-03  0.40893670D-03 -0.15948210D-02
 -0.77318458D-03  0.23680056D-02 -0.67329800D-02  0.43165834D-02 -0.63503873D-02
  0.95335590D-04 -0.22158019D-03  0.12624460D-03 -0.78873095D-03  0.45309346D-03
 -0.11733507D-03
END DATA
 TOTAL ENERGY =    -76.464232549335 THE VIRIAL(-V/T)=   2.00453858
