 63
GAUSSIAN              5 MOL ORBITALS    126 PRIMITIVES        3 NUCLEI   B3LYP   B3LYP   B3LYP
  O    1    (CENTRE  1)   0.00000000  0.00000000  0.00815606  CHARGE =  8.0
  H    2    (CENTRE  2)   0.09448631 -1.44255835 -1.09730160  CHARGE =  1.0
  H    3    (CENTRE  3)  -0.09448631  1.44255835 -1.09730160  CHARGE =  1.0
CENTRE ASSIGNMENTS    1  1  1  1  1  1  1  1  1  1  1  1  1  1  1  1  1  1  1  1
CENTRE ASSIGNMENTS    1  1  1  1  1  1  1  1  1  1  1  1  1  1  1  1  1  1  1  1
CENTRE ASSIGNMENTS    1  1  1  1  1  1  1  1  1  1  1  1  1  1  1  1  1  1  1  1
CENTRE ASSIGNMENTS    1  1  1  1  1  1  1  1  1  1  1  1  2  2  2  2  2  2  2  2
CENTRE ASSIGNMENTS    2  2  2  2  2  2  2  2  2  2  2  2  2  2  2  2  2  2  2  3
CENTRE ASSIGNMENTS    3  3  3  3  3  3  3  3  3  3  3  3  3  3  3  3  3  3  3  3
CENTRE ASSIGNMENTS    3  3  3  3  3  3
TYPE ASSIGNMENTS      1  1  1  1  1  1  1  1  1  1  1  1  1  1  1  1  2  2  2  3
TYPE ASSIGNMENTS      3  3  4  4  4  2  3  4  2  3  4  2  3  4  5  6  7  8  9 10
TYPE ASSIGNMENTS      5  6  7  8  9 10  5  6  7  8  9 10 11 12 13 17 14 15 18 19
TYPE ASSIGNMENTS     16 20 11 12 13 17 14 15 18 19 16 20  1  1  1  1  1  1  2  3
TYPE ASSIGNMENTS      4  2  3  4  2  3  4  5  6  7  8  9 10  5  6  7  8  9 10  1
TYPE ASSIGNMENTS      1  1  1  1  1  2  3  4  2  3  4  2  3  4  5  6  7  8  9 10
TYPE ASSIGNMENTS      5  6  7  8  9 10
EXPONENTS  0.1533000D+05 0.2299000D+04 0.5224000D+03 0.1473000D+03 0.4755000D+02
EXPONENTS  0.1676000D+02 0.6207000D+01 0.5224000D+03 0.1473000D+03 0.4755000D+02
EXPONENTS  0.1676000D+02 0.6207000D+01 0.6882000D+00 0.1752000D+01 0.2384000D+00
EXPONENTS  0.7376000D-01 0.3446000D+02 0.7749000D+01 0.2280000D+01 0.3446000D+02
EXPONENTS  0.7749000D+01 0.2280000D+01 0.3446000D+02 0.7749000D+01 0.2280000D+01
EXPONENTS  0.7156000D+00 0.7156000D+00 0.7156000D+00 0.2140000D+00 0.2140000D+00
EXPONENTS  0.2140000D+00 0.5974000D-01 0.5974000D-01 0.5974000D-01 0.2314000D+01
EXPONENTS  0.2314000D+01 0.2314000D+01 0.2314000D+01 0.2314000D+01 0.2314000D+01
EXPONENTS  0.6450000D+00 0.6450000D+00 0.6450000D+00 0.6450000D+00 0.6450000D+00
EXPONENTS  0.6450000D+00 0.2140000D+00 0.2140000D+00 0.2140000D+00 0.2140000D+00
EXPONENTS  0.2140000D+00 0.2140000D+00 0.1428000D+01 0.1428000D+01 0.1428000D+01
EXPONENTS  0.1428000D+01 0.1428000D+01 0.1428000D+01 0.1428000D+01 0.1428000D+01
EXPONENTS  0.1428000D+01 0.1428000D+01 0.5000000D+00 0.5000000D+00 0.5000000D+00
EXPONENTS  0.5000000D+00 0.5000000D+00 0.5000000D+00 0.5000000D+00 0.5000000D+00
EXPONENTS  0.5000000D+00 0.5000000D+00 0.3387000D+02 0.5095000D+01 0.1159000D+01
EXPONENTS  0.3258000D+00 0.1027000D+00 0.2526000D-01 0.1407000D+01 0.1407000D+01
EXPONENTS  0.1407000D+01 0.3880000D+00 0.3880000D+00 0.3880000D+00 0.1020000D+00
EXPONENTS  0.1020000D+00 0.1020000D+00 0.1057000D+01 0.1057000D+01 0.1057000D+01
EXPONENTS  0.1057000D+01 0.1057000D+01 0.1057000D+01 0.2470000D+00 0.2470000D+00
EXPONENTS  0.2470000D+00 0.2470000D+00 0.2470000D+00 0.2470000D+00 0.3387000D+02
EXPONENTS  0.5095000D+01 0.1159000D+01 0.3258000D+00 0.1027000D+00 0.2526000D-01
EXPONENTS  0.1407000D+01 0.1407000D+01 0.1407000D+01 0.3880000D+00 0.3880000D+00
EXPONENTS  0.3880000D+00 0.1020000D+00 0.1020000D+00 0.1020000D+00 0.1057000D+01
EXPONENTS  0.1057000D+01 0.1057000D+01 0.1057000D+01 0.1057000D+01 0.1057000D+01
EXPONENTS  0.2470000D+00 0.2470000D+00 0.2470000D+00 0.2470000D+00 0.2470000D+00
EXPONENTS  0.2470000D+00
MO    1     MO 0.0        OCC NO =    2.0000000  ORB. ENERGY =    0.000000
 -0.70671565D-02 -0.13172018D-01 -0.22335007D-01 -0.33801658D-01 -0.42164904D-01
 -0.36183761D-01 -0.13856458D-01 -0.42280207D-03 -0.45363888D-02 -0.16721983D-01
 -0.48894098D-01 -0.58919766D-01  0.70975101D-01  0.42415184D-01 -0.24785905D-01
 -0.66504751D-02  0.21288833D+00  0.20643007D+00  0.13925650D+00  0.46574369D+00
  0.45161472D+00  0.30465662D+00 -0.13695019D+01 -0.13279562D+01 -0.89583140D+00
  0.48634929D-01  0.96707991D-01 -0.29820244D+00  0.84296249D-02  0.93627752D-02
 -0.34940572D-01  0.28308810D-03  0.10595892D-03 -0.68780143D-03 -0.43272092D-01
  0.68231015D-02  0.36448990D-01 -0.65913984D-02 -0.71441607D-02 -0.42762812D-01
 -0.64972684D-02 -0.43736468D-02  0.10870915D-01 -0.27941779D-03 -0.21957896D-02
 -0.56810268D-02  0.70260381D-03 -0.12525648D-02  0.54996103D-03  0.25726528D-03
 -0.19035830D-03  0.30075644D-03 -0.11319411D-02  0.22847211D-02 -0.75546646D-03
  0.19817871D-02 -0.52010517D-02  0.17651824D-01  0.14140362D-02 -0.16531116D-02
 -0.15385424D-01  0.43462817D-02 -0.34080509D-04  0.41420925D-04 -0.65521351D-03
  0.33302860D-04 -0.28193741D-03  0.23404748D-03  0.68938666D-04  0.15767464D-03
  0.17315931D-02 -0.19707271D-03  0.18691820D-01  0.33711467D-01  0.49707538D-01
  0.32590258D-01  0.47192443D-02  0.11447904D-03  0.18660115D-02  0.22947066D-01
 -0.32864188D-02  0.12174315D-02  0.94181696D-02 -0.28178424D-02  0.26812809D-03
  0.23089127D-03 -0.98973247D-03 -0.20119920D-02  0.58726923D-02 -0.38607003D-02
  0.65215888D-03  0.10561162D-02  0.28174573D-02 -0.90125011D-04  0.26605577D-03
 -0.17593076D-03  0.13008617D-03  0.14802985D-03 -0.59355965D-03  0.41866364D-01
  0.75507711D-01  0.11133608D+00  0.75407391D-01  0.98710152D-02  0.41882699D-04
  0.56901935D-02 -0.35439354D-01  0.13786999D-01  0.27443626D-02 -0.13895068D-01
  0.40280689D-02  0.28513693D-03 -0.26261771D-04 -0.87116250D-03 -0.61595872D-02
  0.78926560D-02 -0.17330688D-02 -0.35378936D-02  0.22686646D-02 -0.15695057D-01
 -0.10295329D-03  0.15174877D-03 -0.48795478D-04 -0.21073773D-03  0.93263414D-04
  0.24207244D-03
MO    2     MO 0.0        OCC NO =    2.0000000  ORB. ENERGY =    0.000000
 -0.41444745D-01 -0.77246190D-01 -0.13098177D+00 -0.19822698D+00 -0.24727253D+00
 -0.21219662D+00 -0.81260033D-01  0.86069905D-04  0.92347360D-03  0.34040976D-02
  0.99533816D-02  0.11994309D-01 -0.14448416D-01 -0.13708967D-01  0.33392144D-02
  0.10776304D-02  0.17375763D+01  0.16848645D+01  0.11365997D+01  0.24889674D+00
  0.24134612D+00  0.16281066D+00  0.23624306D+00  0.22907630D+00  0.15453352D+00
  0.39258814D+00  0.53678791D-01  0.51403041D-01  0.64711390D-01  0.68784081D-02
  0.59849097D-02  0.20792343D-02  0.16264498D-03  0.11830863D-03  0.78824971D-02
 -0.15981212D-02 -0.62843758D-02  0.12473956D-02 -0.70534749D-01 -0.17263692D-01
  0.11642225D-02  0.72136348D-03 -0.18855860D-02  0.58272867D-04 -0.18316618D-01
 -0.28578335D-02 -0.12405123D-03  0.21976390D-03 -0.95712674D-04 -0.45240476D-04
 -0.12300838D-02  0.10813962D-04 -0.10227516D-01  0.20550662D-02  0.64211701D-04
  0.21279125D-01 -0.62591095D-02 -0.32052743D-02  0.94034222D-02  0.93911018D-04
  0.30126392D-02 -0.81800637D-03 -0.36491319D-03  0.47097246D-04  0.12803763D-03
  0.52926293D-03 -0.22480258D-03 -0.17692810D-04  0.56547664D-03  0.83510847D-04
 -0.36642008D-03  0.45888135D-04 -0.88740583D-02 -0.16004730D-01 -0.23598965D-01
 -0.15761384D-01 -0.19737541D-02 -0.15330047D-05  0.24638512D-01 -0.55285184D-02
 -0.36089858D-02  0.13336694D-01 -0.18032982D-02 -0.11182552D-02  0.20322575D-02
  0.14383352D-03  0.14706925D-03  0.50532978D-03 -0.66434125D-03  0.15901147D-03
  0.12327627D-01  0.91233751D-02 -0.27927060D-02 -0.62512269D-04  0.62205327D-04
  0.30694154D-06  0.12596910D-02  0.78153931D-03  0.74126490D-04 -0.19448145D-02
 -0.35075530D-02 -0.51718848D-02 -0.29734992D-02 -0.42994499D-03 -0.23265526D-04
  0.23959973D-01  0.48312028D-02  0.14951665D-02  0.13079845D-01  0.21182804D-02
  0.92613049D-03  0.20304825D-02  0.17049083D-03  0.18217010D-03  0.77445827D-03
 -0.15698786D-02  0.79542034D-03 -0.11865375D-01  0.89364293D-02  0.61452566D-04
  0.91678298D-04 -0.12952081D-03  0.37842510D-04 -0.12469472D-02  0.79171828D-03
 -0.81188013D-04
MO    3     MO 0.0        OCC NO =    2.0000000  ORB. ENERGY =    0.000000
 -0.56373875D-01 -0.10507163D+00 -0.17816372D+00 -0.26963185D+00 -0.33634448D+00
 -0.28863360D+00 -0.11053134D+00  0.26396144D-04  0.28321330D-03  0.10439776D-02
  0.30525291D-02  0.36784460D-02 -0.44310781D-02 -0.92589264D-02  0.13060488D-01
  0.24785117D-02 -0.35263308D+00 -0.34193547D+00 -0.23066765D+00  0.13618808D+01
  0.13205662D+01  0.89084617D+00  0.44620154D+00  0.43266540D+00  0.29187352D+00
 -0.77938114D-01  0.28158429D+00  0.96824111D-01 -0.11506577D-01  0.26251771D-01
  0.11634485D-01 -0.33000784D-03  0.24616667D-03  0.22893601D-03  0.12995830D-01
 -0.11304611D-02 -0.11865369D-01  0.18587654D-02  0.19175023D-01 -0.12839908D+00
  0.17530289D-02  0.17425013D-02 -0.34955301D-02  0.13955947D-05  0.38742265D-02
 -0.16718868D-01 -0.23160833D-03  0.40871872D-03 -0.17711039D-03 -0.84249353D-04
  0.12098081D-03  0.96946807D-03  0.24687195D-02  0.61798548D-02  0.32415740D-03
 -0.63477348D-02 -0.13118780D-01 -0.55199941D-02 -0.10584236D-02 -0.54207845D-02
  0.45475219D-02 -0.13243968D-02  0.10854802D-03  0.10612878D-03  0.20981526D-03
 -0.20976792D-03 -0.77989397D-03 -0.36020979D-04 -0.11587615D-03  0.46150763D-03
 -0.59342481D-03  0.73337383D-04 -0.44164300D-01 -0.79652134D-01 -0.11744702D+00
 -0.82279738D-01 -0.10440588D-01  0.80279972D-04 -0.17968573D-02 -0.28234621D-01
 -0.26771607D-01 -0.12649869D-02 -0.11005395D-01 -0.10469024D-01 -0.31804638D-03
  0.17441635D-03  0.12175900D-03  0.78917134D-02 -0.56086507D-02 -0.22830627D-02
 -0.52706054D-04  0.11875714D-03 -0.22317614D-01  0.10270944D-03  0.52884631D-04
 -0.15559407D-03 -0.18506717D-03 -0.89555668D-04 -0.43592458D-03  0.26876477D-01
  0.48472832D-01  0.71473163D-01  0.48983461D-01  0.53499389D-02 -0.14224599D-03
 -0.28677582D-02 -0.11884409D-01  0.25566878D-01 -0.17427300D-02 -0.37114078D-02
  0.10518421D-01 -0.32637876D-03  0.30085131D-03  0.48544250D-03 -0.57289556D-02
  0.14899813D-02  0.42389743D-02  0.87901357D-03 -0.17515571D-03 -0.17830328D-01
 -0.31514214D-04 -0.20290777D-03  0.23442199D-03  0.21425401D-03 -0.72224914D-04
 -0.70041953D-03
MO    4     MO 0.0        OCC NO =    2.0000000  ORB. ENERGY =    0.000000
  0.50300803D+00  0.93752426D+00  0.15897041D+01  0.24058482D+01  0.30011060D+01
  0.25753954D+01  0.98623962D+00  0.30214732D-03  0.32418424D-02  0.11950042D-01
  0.34941221D-01  0.42105870D-01 -0.50720982D-01  0.28227496D-01 -0.98482775D-02
 -0.39564167D-03  0.11023624D+00  0.10689207D+00  0.72108762D-01  0.17595908D+00
  0.17062111D+00  0.11510000D+00  0.38194888D-01  0.37036193D-01  0.24984397D-01
  0.25103634D-01  0.36573173D-01  0.97322839D-02  0.42898806D-02  0.35716938D-02
  0.41265120D-03  0.14234071D-03  0.41977624D-04  0.49227868D-05  0.20514285D-02
 -0.97740503D-03 -0.10740234D-02  0.39859020D-03 -0.39237323D-02 -0.16053299D-01
  0.11263877D-02 -0.73657698D-03 -0.38981068D-03  0.24506309D-03 -0.11442538D-02
 -0.21430354D-02  0.97667514D-05  0.67594657D-05 -0.16526217D-04  0.37803039D-06
 -0.92629848D-04  0.11087471D-03 -0.60428200D-03  0.87848368D-03  0.21911554D-03
  0.11198820D-02 -0.20288416D-02 -0.15674373D-03  0.69296395D-03 -0.60660939D-03
 -0.50060288D-03  0.45019553D-04 -0.19239712D-04  0.16107118D-04 -0.75035254D-04
  0.21970338D-04 -0.10787741D-03 -0.30493023D-03  0.35748796D-04  0.59556057D-04
  0.53003599D-03 -0.10980252D-03 -0.80595621D-02 -0.14535752D-01 -0.21432958D-01
 -0.12382976D-01 -0.98522781D-03  0.22660960D-04  0.21242382D-02 -0.67003003D-02
 -0.60797758D-02  0.10497749D-02 -0.20177435D-02 -0.21170461D-02  0.13861270D-03
  0.47856545D-04 -0.26762007D-04  0.21918915D-02 -0.16802503D-02 -0.51164111D-03
  0.13545124D-02  0.10467550D-02 -0.65054472D-02  0.39899906D-05  0.24085162D-04
 -0.28075153D-04  0.85960081D-04  0.59771367D-04 -0.79116542D-04  0.59569678D-03
  0.10743637D-02  0.15841486D-02  0.36081560D-02  0.93892503D-03 -0.44528920D-05
  0.15484624D-02  0.20904279D-02  0.29681088D-03  0.89303763D-03  0.37605879D-03
  0.43972680D-03  0.13956032D-03  0.33215366D-04  0.17515200D-04  0.67054625D-03
 -0.95354019D-03  0.28299394D-03 -0.63148244D-03  0.50824540D-03  0.17164480D-02
  0.20995894D-05 -0.21498310D-04  0.19398721D-04 -0.85472399D-04  0.57901462D-04
 -0.50357850D-04
MO    5     MO 0.0        OCC NO =    2.0000000  ORB. ENERGY =    0.000000
 -0.36013249D-01 -0.67122774D-01 -0.11381610D+00 -0.17224856D+00 -0.21486650D+00
 -0.18438742D+00 -0.70610588D-01 -0.16612387D-02 -0.17824001D-01 -0.65702624D-01
 -0.19211062D+00 -0.23150264D+00  0.27886946D+00  0.16731096D+00  0.10271904D+00
  0.91661867D-02  0.50289482D-01  0.48763881D-01  0.32895826D-01 -0.51997896D-01
 -0.50420468D-01 -0.34013350D-01  0.67997499D+00  0.65934701D+00  0.44479160D+00
  0.11289651D-01 -0.10705858D-01  0.14391968D+00  0.18047298D-02 -0.95979800D-03
  0.21802129D-01  0.56323150D-04 -0.69944999D-05  0.41842474D-03 -0.25392774D-02
  0.20549155D-01 -0.18009878D-01 -0.30362234D-02 -0.22451631D-02  0.50291503D-02
 -0.28977360D-02  0.74237261D-02 -0.45259901D-02 -0.13579672D-02 -0.53670416D-03
  0.64238234D-03 -0.33361026D-03  0.56040526D-03 -0.22679499D-03 -0.11753509D-03
 -0.30208633D-04 -0.40415007D-04 -0.31248476D-03 -0.21703663D-03  0.27721783D-02
  0.70092409D-03  0.42197441D-03 -0.23406921D-02  0.23653019D-03  0.22913548D-03
 -0.59758428D-02  0.47896589D-03 -0.12007132D-04 -0.34860038D-05 -0.14484826D-04
  0.19608444D-04  0.28095855D-04  0.36365569D-04  0.16412951D-04 -0.17637843D-04
  0.70889104D-05  0.36935656D-05  0.77117903D-02  0.13908531D-01  0.20508121D-01
 -0.94320368D-02 -0.68385437D-02 -0.14419952D-03  0.89984419D-04  0.85336071D-02
  0.17451129D-01  0.63084062D-03 -0.42349383D-02  0.31880207D-02  0.90606306D-04
 -0.54985347D-03  0.39723565D-03 -0.65588162D-03 -0.19338078D-02  0.25896894D-02
  0.49362296D-03 -0.37146825D-04  0.42158648D-02  0.14336020D-03 -0.25363522D-03
  0.11027502D-03  0.86327137D-04  0.16583241D-04  0.68140537D-04  0.48756656D-02
  0.87934638D-02  0.12965957D-01 -0.14672705D-01 -0.74688669D-02 -0.13531629D-03
  0.10986808D-02 -0.68662373D-02  0.15361629D-01  0.35070719D-04  0.48582413D-02
  0.23500943D-02  0.19430222D-04  0.53635570D-03  0.38270888D-03 -0.79461009D-04
 -0.22498577D-02  0.23293187D-02 -0.39831819D-04  0.40857564D-03 -0.25888480D-02
  0.15213728D-03 -0.24683155D-03  0.94694267D-04  0.18364365D-04  0.22348544D-04
 -0.20654109D-04
END DATA
 TOTAL ENERGY =    -76.466194695573 THE VIRIAL(-V/T)=   2.00603038
