 70
GAUSSIAN              5 MOL ORBITALS    126 PRIMITIVES        3 NUCLEI   B3LYP   B3LYP   B3LYP
  O    1    (CENTRE  1)   0.09448631  0.00000000  0.00815606  CHARGE =  8.0
  H    2    (CENTRE  2)   0.00000000 -1.44255835 -1.09730160  CHARGE =  1.0
  H    3    (CENTRE  3)   0.00000000  1.53704465 -1.09730160  CHARGE =  1.0
CENTRE ASSIGNMENTS    1  1  1  1  1  1  1  1  1  1  1  1  1  1  1  1  1  1  1  1
CENTRE ASSIGNMENTS    1  1  1  1  1  1  1  1  1  1  1  1  1  1  1  1  1  1  1  1
CENTRE ASSIGNMENTS    1  1  1  1  1  1  1  1  1  1  1  1  1  1  1  1  1  1  1  1
CENTRE ASSIGNMENTS    1  1  1  1  1  1  1  1  1  1  1  1  2  2  2  2  2  2  2  2
CENTRE ASSIGNMENTS    2  2  2  2  2  2  2  2  2  2  2  2  2  2  2  2  2  2  2  3
CENTRE ASSIGNMENTS    3  3  3  3  3  3  3  3  3  3  3  3  3  3  3  3  3  3  3  3
CENTRE ASSIGNMENTS    3  3  3  3  3  3
TYPE ASSIGNMENTS      1  1  1  1  1  1  1  1  1  1  1  1  1  1  1  1  2  2  2  3
TYPE ASSIGNMENTS      3  3  4  4  4  2  3  4  2  3  4  2  3  4  5  6  7  8  9 10
TYPE ASSIGNMENTS      5  6  7  8  9 10  5  6  7  8  9 10 11 12 13 17 14 15 18 19
TYPE ASSIGNMENTS     16 20 11 12 13 17 14 15 18 19 16 20  1  1  1  1  1  1  2  3
TYPE ASSIGNMENTS      4  2  3  4  2  3  4  5  6  7  8  9 10  5  6  7  8  9 10  1
TYPE ASSIGNMENTS      1  1  1  1  1  2  3  4  2  3  4  2  3  4  5  6  7  8  9 10
TYPE ASSIGNMENTS      5  6  7  8  9 10
EXPONENTS  0.1533000D+05 0.2299000D+04 0.5224000D+03 0.1473000D+03 0.4755000D+02
EXPONENTS  0.1676000D+02 0.6207000D+01 0.5224000D+03 0.1473000D+03 0.4755000D+02
EXPONENTS  0.1676000D+02 0.6207000D+01 0.6882000D+00 0.1752000D+01 0.2384000D+00
EXPONENTS  0.7376000D-01 0.3446000D+02 0.7749000D+01 0.2280000D+01 0.3446000D+02
EXPONENTS  0.7749000D+01 0.2280000D+01 0.3446000D+02 0.7749000D+01 0.2280000D+01
EXPONENTS  0.7156000D+00 0.7156000D+00 0.7156000D+00 0.2140000D+00 0.2140000D+00
EXPONENTS  0.2140000D+00 0.5974000D-01 0.5974000D-01 0.5974000D-01 0.2314000D+01
EXPONENTS  0.2314000D+01 0.2314000D+01 0.2314000D+01 0.2314000D+01 0.2314000D+01
EXPONENTS  0.6450000D+00 0.6450000D+00 0.6450000D+00 0.6450000D+00 0.6450000D+00
EXPONENTS  0.6450000D+00 0.2140000D+00 0.2140000D+00 0.2140000D+00 0.2140000D+00
EXPONENTS  0.2140000D+00 0.2140000D+00 0.1428000D+01 0.1428000D+01 0.1428000D+01
EXPONENTS  0.1428000D+01 0.1428000D+01 0.1428000D+01 0.1428000D+01 0.1428000D+01
EXPONENTS  0.1428000D+01 0.1428000D+01 0.5000000D+00 0.5000000D+00 0.5000000D+00
EXPONENTS  0.5000000D+00 0.5000000D+00 0.5000000D+00 0.5000000D+00 0.5000000D+00
EXPONENTS  0.5000000D+00 0.5000000D+00 0.3387000D+02 0.5095000D+01 0.1159000D+01
EXPONENTS  0.3258000D+00 0.1027000D+00 0.2526000D-01 0.1407000D+01 0.1407000D+01
EXPONENTS  0.1407000D+01 0.3880000D+00 0.3880000D+00 0.3880000D+00 0.1020000D+00
EXPONENTS  0.1020000D+00 0.1020000D+00 0.1057000D+01 0.1057000D+01 0.1057000D+01
EXPONENTS  0.1057000D+01 0.1057000D+01 0.1057000D+01 0.2470000D+00 0.2470000D+00
EXPONENTS  0.2470000D+00 0.2470000D+00 0.2470000D+00 0.2470000D+00 0.3387000D+02
EXPONENTS  0.5095000D+01 0.1159000D+01 0.3258000D+00 0.1027000D+00 0.2526000D-01
EXPONENTS  0.1407000D+01 0.1407000D+01 0.1407000D+01 0.3880000D+00 0.3880000D+00
EXPONENTS  0.3880000D+00 0.1020000D+00 0.1020000D+00 0.1020000D+00 0.1057000D+01
EXPONENTS  0.1057000D+01 0.1057000D+01 0.1057000D+01 0.1057000D+01 0.1057000D+01
EXPONENTS  0.2470000D+00 0.2470000D+00 0.2470000D+00 0.2470000D+00 0.2470000D+00
EXPONENTS  0.2470000D+00
MO    1     MO 0.0        OCC NO =    2.0000000  ORB. ENERGY =    0.000000
  0.25998343D-01  0.48456637D-01  0.82165038D-01  0.12434805D+00  0.15511439D+00
  0.13311122D+00  0.50974527D-01  0.12811974D-03  0.13746408D-02  0.50671847D-02
  0.14816151D-01  0.17854182D-01 -0.21507255D-01 -0.11155015D-01 -0.16009203D-01
 -0.26699130D-02  0.23945939D-01  0.23219506D-01  0.15663742D-01  0.14086626D+01
  0.13659288D+01  0.92144752D+00 -0.40143711D+00 -0.38925896D+00 -0.26259179D+00
  0.54831115D-02  0.29630260D+00 -0.89831889D-01  0.10897889D-02  0.29677956D-01
 -0.12779874D-01  0.49069921D-04  0.31722919D-03 -0.25738228D-03 -0.92240422D-02
 -0.39497809D-03  0.96190203D-02 -0.11094241D-01  0.92364663D-03 -0.12892899D+00
 -0.17032720D-02 -0.12501175D-02  0.29533894D-02 -0.16598766D-02  0.18464236D-03
 -0.19582063D-01  0.14018190D-04 -0.22317470D-03  0.20915651D-03  0.42994911D-04
 -0.10216376D-04  0.44429325D-03  0.73620868D-04  0.68903254D-02 -0.29442325D-03
  0.39948307D-03 -0.15989893D-01  0.48601775D-02 -0.62034568D-03 -0.46810837D-02
 -0.39769077D-02  0.19818341D-02  0.59652676D-05  0.99438982D-04 -0.52953795D-04
  0.17872677D-04 -0.10384803D-02  0.24812407D-03 -0.35768480D-04  0.74016336D-03
 -0.89262689D-04  0.28881776D-03 -0.29939724D-01 -0.53997525D-01 -0.79619319D-01
 -0.52009567D-01 -0.48759990D-02  0.16210483D-03 -0.15610095D-02 -0.13915475D-01
 -0.27719765D-01 -0.48558236D-03 -0.33916381D-02 -0.10845329D-01  0.31979177D-04
  0.50238449D-03 -0.42673195D-03  0.57520441D-02 -0.13135794D-02 -0.44384647D-02
 -0.11449759D-02 -0.14491077D-02 -0.18110302D-01 -0.27844831D-04  0.33223702D-03
 -0.30439219D-03 -0.76943643D-05 -0.20205397D-04 -0.58406513D-03  0.41688267D-01
  0.75186507D-01  0.11086246D+00  0.77382662D-01  0.11067488D-01 -0.83706744D-04
  0.25512059D-02 -0.23203477D-01  0.21233154D-01  0.11854555D-02 -0.99946633D-02
  0.91404253D-02  0.57977695D-04  0.10877721D-03 -0.72604843D-04 -0.66897928D-02
  0.52122904D-02  0.14775025D-02 -0.19820058D-02  0.16774039D-02 -0.18721271D-01
 -0.20394713D-03  0.45339163D-04  0.15860796D-03 -0.10482760D-03  0.84554959D-04
 -0.77699358D-03
MO    2     MO 0.0        OCC NO =    2.0000000  ORB. ENERGY =    0.000000
  0.12675213D-01  0.23624512D-01  0.40058681D-01  0.60624553D-01  0.75624352D-01
  0.64896945D-01  0.24852082D-01 -0.37636023D-03 -0.40380982D-02 -0.14885190D-01
 -0.43523424D-01 -0.52447842D-01  0.63178983D-01  0.40938289D-01  0.68817688D-01
  0.10452028D-01  0.11814239D-01  0.11455837D-01  0.77280402D-02  0.37306812D+00
  0.36175058D+00  0.24403481D+00  0.15525604D+01  0.15054613D+01  0.10155753D+01
  0.14824344D-02  0.75831502D-01  0.33686028D+00 -0.89500558D-03  0.63349317D-02
  0.42505150D-01 -0.74671749D-04  0.59882205D-04  0.85174257D-03  0.37139976D-01
  0.20474056D-02 -0.39187382D-01 -0.30530745D-02 -0.83284113D-02 -0.37522482D-01
  0.44245473D-02  0.72440233D-02 -0.11668571D-01 -0.35625903D-03 -0.14903041D-02
 -0.38337601D-02 -0.72675218D-03  0.13644743D-02 -0.63772209D-03  0.41987498D-04
  0.10632043D-03  0.61443636D-03 -0.71315786D-03  0.14919553D-02  0.14680180D-02
 -0.49756280D-03 -0.35375368D-02 -0.16534342D-01  0.26370364D-02 -0.93832898D-03
  0.12130288D-01  0.37784117D-03  0.85303073D-05  0.15461581D-03  0.56801073D-03
 -0.17576878D-03 -0.18380140D-03 -0.26729502D-03  0.15017786D-03 -0.28004604D-03
 -0.14367372D-02  0.19659500D-04 -0.34300529D-01 -0.61862417D-01 -0.91216098D-01
 -0.73123633D-01 -0.12341685D-01 -0.10719911D-03 -0.20596107D-02 -0.28531433D-01
 -0.44750693D-02 -0.11067390D-02 -0.14984614D-01 -0.22338737D-02 -0.58898270D-04
 -0.34250787D-03  0.97183182D-03  0.53970783D-02 -0.82474937D-02  0.28504154D-02
 -0.19287865D-02 -0.10728411D-02 -0.12781091D-01  0.17348772D-03 -0.32708915D-03
  0.15360143D-03 -0.68695243D-04 -0.60361580D-04  0.21934736D-03 -0.13913531D-01
 -0.25093627D-01 -0.37000538D-01 -0.34250096D-01 -0.84578013D-02 -0.18834328D-03
 -0.65345107D-03  0.14816617D-01  0.10233609D-01 -0.53781963D-03  0.10412664D-01
  0.35181223D-02 -0.49869162D-04  0.58220774D-03  0.97582583D-03  0.14244117D-02
 -0.57345146D-02  0.43101029D-02  0.82254121D-03 -0.65288351D-04  0.35790786D-03
  0.25630587D-03 -0.46112113D-03  0.20481525D-03  0.51320458D-04 -0.54728880D-04
 -0.33417516D-03
MO    3     MO 0.0        OCC NO =    2.0000000  ORB. ENERGY =    0.000000
  0.45273047D+00  0.84381516D+00  0.14308072D+01  0.21653745D+01  0.27011340D+01
  0.23179749D+01  0.88766123D+00  0.42575011D-03  0.45680193D-02  0.16838579D-01
  0.49235018D-01  0.59330591D-01 -0.71469984D-01  0.97170960D-02 -0.22155820D-01
 -0.18363995D-02 -0.81901170D+00 -0.79416585D+00 -0.53573959D+00 -0.61438168D-01
 -0.59574357D-01 -0.40188509D-01 -0.51591830D-01 -0.50026721D-01 -0.33747730D-01
 -0.18473619D+00 -0.13855602D-01 -0.82957730D-02 -0.30616847D-01 -0.16095873D-02
 -0.12305892D-02 -0.99328709D-03 -0.22546752D-04  0.49942310D-05  0.24301607D-02
 -0.27353880D-02  0.30522728D-03  0.15698306D-02  0.32082885D-01  0.61628004D-02
  0.18714679D-02 -0.19940734D-02  0.12260550D-03 -0.71435333D-04  0.83300583D-02
  0.14267025D-02  0.16582606D-03 -0.16155609D-03 -0.42699684D-05 -0.67422061D-04
  0.58337065D-03  0.40881524D-04  0.47825357D-02 -0.31978193D-03  0.86751322D-04
 -0.10275266D-01  0.11094569D-02 -0.10326648D-02 -0.40723412D-02 -0.15011112D-03
  0.77241087D-03 -0.68701716D-03  0.18525675D-03 -0.16863945D-04 -0.10473000D-03
 -0.29673836D-03  0.96087588D-04 -0.38364478D-03 -0.25903190D-03 -0.45495755D-04
  0.69783479D-03  0.21985944D-03 -0.60660372D-03 -0.10940348D-02 -0.16131537D-02
  0.34686655D-02  0.14690352D-02  0.19131947D-04 -0.11464039D-01 -0.22362470D-02
 -0.19069528D-02 -0.61742187D-02  0.34196993D-03 -0.22668268D-04 -0.95804060D-03
  0.39143504D-04 -0.18839270D-04  0.46574763D-03 -0.47725124D-03  0.11503616D-04
 -0.58243788D-02 -0.43533061D-02 -0.21959997D-02 -0.50030712D-04  0.23767032D-04
  0.26263680D-04 -0.58715012D-03 -0.37035490D-03  0.23563685D-04 -0.35779307D-02
 -0.64529453D-02 -0.95148641D-02 -0.13421340D-02  0.10890393D-02  0.42144107D-04
 -0.10582449D-01  0.31434174D-02 -0.33405376D-02 -0.56962611D-02 -0.31945371D-03
 -0.52606836D-03 -0.89801588D-03 -0.13335731D-03 -0.15346860D-05  0.60223748D-03
 -0.41028000D-03 -0.19195748D-03  0.55546067D-02 -0.39255500D-02  0.25416912D-02
 -0.53920791D-04  0.61396576D-04 -0.74757852D-05  0.53806130D-03 -0.30086355D-03
 -0.42443304D-06
MO    4     MO 0.0        OCC NO =    2.0000000  ORB. ENERGY =    0.000000
 -0.16821570D+00 -0.31352641D+00 -0.53162809D+00 -0.80456258D+00 -0.10036284D+01
 -0.86126249D+00 -0.32981778D+00 -0.11904130D-02 -0.12772350D-01 -0.47081287D-01
 -0.13766292D+00 -0.16589051D+00  0.19983270D+00  0.10270973D+00  0.53625738D-01
  0.29378718D-02 -0.12276368D+01 -0.11903947D+01 -0.80303325D+00  0.42309554D-01
  0.41026035D-01  0.27675921D-01 -0.14761718D-01 -0.14313901D-01 -0.96560729D-02
 -0.27757127D+00  0.10551348D-01 -0.60867606D-02 -0.45679940D-01  0.15866503D-02
  0.29830844D-02 -0.14868909D-02  0.17873711D-04  0.10686044D-03 -0.13200380D-01
  0.14661050D-01 -0.14606700D-02  0.13706578D-02  0.50874981D-01 -0.23268779D-02
 -0.35462784D-02  0.34190596D-02  0.12721883D-03 -0.42668935D-03  0.13626723D-01
 -0.15865314D-02  0.73279181D-04 -0.64289462D-04 -0.89897188D-05 -0.12040085D-03
  0.90815007D-03 -0.15938951D-03  0.75273611D-02  0.43909866D-03  0.19830370D-02
 -0.16268793D-01 -0.11029065D-02  0.22448986D-02 -0.63132901D-02 -0.21438950D-03
 -0.81940095D-02 -0.55503123D-03  0.34061338D-03 -0.27793725D-04 -0.10999525D-03
 -0.51983607D-03 -0.13058049D-03  0.13475060D-03 -0.50200407D-03  0.21396166D-03
  0.19523517D-03  0.42705980D-03  0.14607405D-01  0.26345057D-01  0.38845771D-01
  0.12121489D-01 -0.16275777D-02 -0.50085452D-04 -0.15924174D-01  0.15958763D-01
  0.12745654D-01 -0.90862870D-02  0.19761504D-02  0.24114909D-02 -0.14400265D-02
 -0.23094299D-03 -0.15094833D-05 -0.24693045D-02  0.17227759D-02  0.74652864D-03
 -0.79027919D-02 -0.58822942D-02  0.68235197D-02 -0.29046285D-05 -0.30427207D-04
  0.33331835D-04 -0.89154928D-03 -0.57111537D-03 -0.53497652D-04  0.15683977D-01
  0.28286699D-01  0.41708720D-01  0.14645351D-01 -0.10866198D-02 -0.57762689D-04
 -0.14461230D-01 -0.15184801D-01  0.12175634D-01 -0.82737802D-02 -0.19206995D-02
  0.27408598D-02 -0.13501443D-02  0.26229673D-03  0.18989477D-04 -0.22708285D-02
  0.14777380D-02  0.79309047D-03  0.75026603D-02 -0.51763802D-02 -0.62328641D-02
 -0.28855692D-04 -0.46285823D-04  0.75141514D-04  0.80430774D-03 -0.44708025D-03
 -0.68061733D-04
MO    5     MO 0.0        OCC NO =    2.0000000  ORB. ENERGY =    0.000000
  0.15856101D+00  0.29553166D+00  0.50111545D+00  0.75838495D+00  0.94602545D+00
  0.81183058D+00  0.31088798D+00 -0.11376478D-02 -0.12206214D-01 -0.44994403D-01
 -0.13156100D+00 -0.15853740D+00  0.19097509D+00  0.13607854D+00  0.55583580D-01
  0.34411111D-02  0.10146411D+01  0.98386056D+00  0.66370652D+00 -0.34273807D-01
 -0.33234064D-01 -0.22419503D-01 -0.12063367D+00 -0.11697408D+00 -0.78910025D-01
  0.22902058D+00 -0.62854411D-02 -0.29562338D-01  0.38244714D-01 -0.32140017D-03
 -0.17063616D-02  0.12434650D-02 -0.75589320D-05 -0.80154033D-04 -0.19473769D-01
  0.15631711D-01  0.38420579D-02 -0.85444346D-03 -0.36812115D-01  0.53583559D-02
 -0.49355591D-02  0.34320720D-02  0.15034871D-02  0.22907173D-03 -0.97512585D-02
 -0.16653947D-03 -0.65897406D-04 -0.31733897D-04  0.97631303D-04  0.77772661D-04
 -0.74273012D-03 -0.13404266D-03 -0.55248537D-02  0.55403803D-04  0.13118528D-02
  0.12077038D-01  0.20712308D-03  0.69996297D-02  0.44975232D-02 -0.37333449D-03
 -0.10935188D-01  0.49159861D-03 -0.25644274D-03 -0.34078278D-04 -0.23820140D-03
  0.49171109D-03 -0.12158059D-03  0.20826832D-03  0.27761714D-03  0.22381542D-03
  0.50633588D-03 -0.24783004D-03  0.14652177D-01  0.26425804D-01  0.38964833D-01
  0.11587362D-01 -0.19585826D-02 -0.66572370D-04  0.15165000D-01  0.14742840D-01
  0.11064945D-01  0.78678016D-02  0.10599425D-02  0.11904902D-02  0.11869767D-02
 -0.31370273D-03 -0.19218658D-03 -0.88876902D-03  0.78313997D-03  0.10562905D-03
  0.74414514D-02  0.55502229D-02  0.40867628D-02  0.10290132D-03 -0.74732127D-04
 -0.28169192D-04  0.72594807D-03  0.45994819D-03 -0.17957050D-03  0.11912019D-01
  0.21483817D-01  0.31677875D-01  0.80162577D-02 -0.20615175D-02 -0.53036023D-04
  0.13684616D-01 -0.12604066D-01  0.85262790D-02  0.71873429D-02 -0.75429667D-03
  0.89863721D-03  0.11165611D-02  0.27008953D-03 -0.15421053D-03 -0.46174842D-03
  0.46873755D-03 -0.69891260D-05 -0.69356697D-02  0.48454340D-02 -0.25755662D-02
  0.64338472D-04 -0.63376982D-04 -0.96149014D-06 -0.66853719D-03  0.37737089D-03
  0.99544382D-04
END DATA
 TOTAL ENERGY =    -76.464602682364 THE VIRIAL(-V/T)=   2.00696610
