 71
GAUSSIAN              5 MOL ORBITALS    126 PRIMITIVES        3 NUCLEI   B3LYP   B3LYP   B3LYP
  O    1    (CENTRE  1)   0.00000000  0.09448631  0.00815606  CHARGE =  8.0
  H    2    (CENTRE  2)   0.00000000 -1.44255835 -1.09730160  CHARGE =  1.0
  H    3    (CENTRE  3)   0.00000000  1.34807204 -1.09730160  CHARGE =  1.0
CENTRE ASSIGNMENTS    1  1  1  1  1  1  1  1  1  1  1  1  1  1  1  1  1  1  1  1
CENTRE ASSIGNMENTS    1  1  1  1  1  1  1  1  1  1  1  1  1  1  1  1  1  1  1  1
CENTRE ASSIGNMENTS    1  1  1  1  1  1  1  1  1  1  1  1  1  1  1  1  1  1  1  1
CENTRE ASSIGNMENTS    1  1  1  1  1  1  1  1  1  1  1  1  2  2  2  2  2  2  2  2
CENTRE ASSIGNMENTS    2  2  2  2  2  2  2  2  2  2  2  2  2  2  2  2  2  2  2  3
CENTRE ASSIGNMENTS    3  3  3  3  3  3  3  3  3  3  3  3  3  3  3  3  3  3  3  3
CENTRE ASSIGNMENTS    3  3  3  3  3  3
TYPE ASSIGNMENTS      1  1  1  1  1  1  1  1  1  1  1  1  1  1  1  1  2  2  2  3
TYPE ASSIGNMENTS      3  3  4  4  4  2  3  4  2  3  4  2  3  4  5  6  7  8  9 10
TYPE ASSIGNMENTS      5  6  7  8  9 10  5  6  7  8  9 10 11 12 13 17 14 15 18 19
TYPE ASSIGNMENTS     16 20 11 12 13 17 14 15 18 19 16 20  1  1  1  1  1  1  2  3
TYPE ASSIGNMENTS      4  2  3  4  2  3  4  5  6  7  8  9 10  5  6  7  8  9 10  1
TYPE ASSIGNMENTS      1  1  1  1  1  2  3  4  2  3  4  2  3  4  5  6  7  8  9 10
TYPE ASSIGNMENTS      5  6  7  8  9 10
EXPONENTS  0.1533000D+05 0.2299000D+04 0.5224000D+03 0.1473000D+03 0.4755000D+02
EXPONENTS  0.1676000D+02 0.6207000D+01 0.5224000D+03 0.1473000D+03 0.4755000D+02
EXPONENTS  0.1676000D+02 0.6207000D+01 0.6882000D+00 0.1752000D+01 0.2384000D+00
EXPONENTS  0.7376000D-01 0.3446000D+02 0.7749000D+01 0.2280000D+01 0.3446000D+02
EXPONENTS  0.7749000D+01 0.2280000D+01 0.3446000D+02 0.7749000D+01 0.2280000D+01
EXPONENTS  0.7156000D+00 0.7156000D+00 0.7156000D+00 0.2140000D+00 0.2140000D+00
EXPONENTS  0.2140000D+00 0.5974000D-01 0.5974000D-01 0.5974000D-01 0.2314000D+01
EXPONENTS  0.2314000D+01 0.2314000D+01 0.2314000D+01 0.2314000D+01 0.2314000D+01
EXPONENTS  0.6450000D+00 0.6450000D+00 0.6450000D+00 0.6450000D+00 0.6450000D+00
EXPONENTS  0.6450000D+00 0.2140000D+00 0.2140000D+00 0.2140000D+00 0.2140000D+00
EXPONENTS  0.2140000D+00 0.2140000D+00 0.1428000D+01 0.1428000D+01 0.1428000D+01
EXPONENTS  0.1428000D+01 0.1428000D+01 0.1428000D+01 0.1428000D+01 0.1428000D+01
EXPONENTS  0.1428000D+01 0.1428000D+01 0.5000000D+00 0.5000000D+00 0.5000000D+00
EXPONENTS  0.5000000D+00 0.5000000D+00 0.5000000D+00 0.5000000D+00 0.5000000D+00
EXPONENTS  0.5000000D+00 0.5000000D+00 0.3387000D+02 0.5095000D+01 0.1159000D+01
EXPONENTS  0.3258000D+00 0.1027000D+00 0.2526000D-01 0.1407000D+01 0.1407000D+01
EXPONENTS  0.1407000D+01 0.3880000D+00 0.3880000D+00 0.3880000D+00 0.1020000D+00
EXPONENTS  0.1020000D+00 0.1020000D+00 0.1057000D+01 0.1057000D+01 0.1057000D+01
EXPONENTS  0.1057000D+01 0.1057000D+01 0.1057000D+01 0.2470000D+00 0.2470000D+00
EXPONENTS  0.2470000D+00 0.2470000D+00 0.2470000D+00 0.2470000D+00 0.3387000D+02
EXPONENTS  0.5095000D+01 0.1159000D+01 0.3258000D+00 0.1027000D+00 0.2526000D-01
EXPONENTS  0.1407000D+01 0.1407000D+01 0.1407000D+01 0.3880000D+00 0.3880000D+00
EXPONENTS  0.3880000D+00 0.1020000D+00 0.1020000D+00 0.1020000D+00 0.1057000D+01
EXPONENTS  0.1057000D+01 0.1057000D+01 0.1057000D+01 0.1057000D+01 0.1057000D+01
EXPONENTS  0.2470000D+00 0.2470000D+00 0.2470000D+00 0.2470000D+00 0.2470000D+00
EXPONENTS  0.2470000D+00
MO    1     MO 0.0        OCC NO =    2.0000000  ORB. ENERGY =    0.000000
  0.41641723D-01  0.77613324D-01  0.13160430D+00  0.19916911D+00  0.24844777D+00
  0.21320515D+00  0.81646244D-01 -0.26977089D-03 -0.28944646D-02 -0.10669542D-01
 -0.31197114D-01 -0.37594039D-01  0.45286004D-01  0.32614930D-01 -0.37933049D-01
 -0.76177974D-02  0.16662064D+00  0.16156598D+00  0.10899145D+00 -0.13792526D+00
 -0.13374110D+00 -0.90220958D-01 -0.14913073D+01 -0.14460664D+01 -0.97550784D+00
  0.37548706D-01 -0.37645224D-01 -0.32126003D+00  0.61153179D-02 -0.78285417D-02
 -0.36337282D-01  0.19272798D-03 -0.11401169D-03 -0.68659831D-03 -0.46253555D-01
  0.29136044D-02  0.43339951D-01  0.59434692D-03 -0.71830264D-02  0.14171288D-02
 -0.62462630D-02 -0.52536713D-02  0.11499934D-01 -0.18753558D-03 -0.17251307D-02
  0.74028306D-02  0.89980488D-03 -0.13364257D-02  0.43662084D-03 -0.44518894D-04
 -0.10619214D-03  0.15527689D-02 -0.99816815D-03 -0.15915442D-02 -0.15811735D-02
  0.20074799D-02  0.33665635D-02  0.19355656D-01  0.98702458D-03  0.14080692D-02
 -0.14612135D-01 -0.20325791D-03 -0.25268025D-04  0.42158477D-03 -0.65410152D-03
  0.38318977D-04  0.65934418D-03 -0.55024139D-04  0.37485098D-04 -0.19240985D-02
  0.20173287D-02  0.16693824D-03  0.32274652D-01  0.58208664D-01  0.85828641D-01
  0.57933152D-01  0.90080256D-02  0.87420727D-04  0.21032391D-02  0.26938378D-01
  0.35043465D-02  0.11414521D-02  0.11823679D-01  0.71437364D-03  0.18006749D-03
  0.16040316D-03 -0.90971411D-03 -0.40688065D-02  0.68613309D-02 -0.27925245D-02
  0.10834379D-02  0.73285879D-03  0.72738992D-02 -0.22557882D-03  0.20851679D-03
  0.17062027D-04  0.10796962D-03  0.56307396D-04 -0.98019665D-04  0.31634767D-01
  0.57054605D-01  0.84126982D-01  0.59649145D-01  0.64954967D-02  0.75280185D-04
  0.27825799D-02 -0.36673239D-01  0.73281689D-02  0.14982566D-02 -0.12525102D-01
 -0.60450948D-03  0.21768688D-03  0.37370349D-04 -0.12777814D-02 -0.47499691D-02
  0.80921894D-02 -0.33422204D-02 -0.12883020D-02  0.10957248D-02 -0.11840160D-01
  0.22151312D-03  0.88230648D-04 -0.30974377D-03 -0.13798740D-03  0.10525994D-03
  0.12368949D-02
MO    2     MO 0.0        OCC NO =    2.0000000  ORB. ENERGY =    0.000000
  0.48885494D-01  0.91114524D-01  0.15449748D+00  0.23381551D+00  0.29166641D+00
  0.25029318D+00  0.95848989D-01 -0.11803222D-02 -0.12664083D-01 -0.46682193D-01
 -0.13649599D+00 -0.16448431D+00  0.19813878D+00  0.12644395D+00  0.81628010D-01
  0.71918153D-02  0.59586146D+00  0.57778518D+00  0.38977047D+00 -0.81830169D+00
 -0.79347737D+00 -0.53527515D+00  0.58668619D+00  0.56888825D+00  0.38376866D+00
  0.13428004D+00 -0.16849424D+00  0.12012392D+00  0.21869332D-01 -0.15069378D-01
  0.15042485D-01  0.68922538D-03 -0.13017515D-03  0.26820239D-03  0.48733338D-03
  0.16469422D-01 -0.16956756D-01  0.21254775D-02 -0.25687625D-01  0.76076505D-01
 -0.24566207D-02  0.63592896D-02 -0.39026689D-02 -0.67065654D-03 -0.61693369D-02
  0.10130814D-01 -0.55751537D-03  0.59991338D-03 -0.42398009D-04 -0.15920652D-03
 -0.37975968D-03 -0.88105144D-03 -0.35696053D-02 -0.40275715D-02  0.21177620D-02
  0.71790617D-02  0.84195033D-02 -0.20135896D-02  0.35297541D-02  0.36632113D-02
 -0.43396965D-02 -0.72688205D-03 -0.90362405D-04 -0.11122585D-03  0.13205086D-03
  0.13703465D-03  0.58349060D-03  0.25327834D-03  0.13405257D-03 -0.24981304D-03
 -0.64943091D-03  0.59699723D-03  0.23573586D-01  0.42515933D-01  0.62689718D-01
  0.27108247D-01 -0.29360682D-03 -0.17109669D-03  0.75215115D-02  0.15110792D-01
  0.23968932D-01  0.40820111D-02  0.60367069D-03  0.77224005D-02  0.64394949D-03
 -0.46075278D-03  0.45092741D-03 -0.35788904D-02  0.29553770D-03  0.32833527D-02
  0.38745434D-02  0.26208176D-02  0.12443756D-01 -0.17357132D-05 -0.16799381D-03
  0.16972952D-03  0.38611624D-03  0.20136405D-03  0.55798133D-03 -0.17879807D-01
 -0.32246967D-01 -0.47548135D-01 -0.54708671D-01 -0.95094959D-02 -0.30168673D-04
  0.99509406D-02  0.93152062D-02 -0.74714951D-02  0.53579996D-02  0.78001470D-02
 -0.52776725D-02  0.77848231D-03  0.17084996D-04  0.32712001D-03  0.43449129D-02
 -0.31508479D-02 -0.11940650D-02 -0.46071692D-02  0.39184829D-02  0.11606162D-01
 -0.43253443D-04  0.85932721D-04 -0.42679278D-04 -0.49346452D-03  0.37642598D-03
 -0.22676457D-03
MO    3     MO 0.0        OCC NO =    2.0000000  ORB. ENERGY =    0.000000
  0.39683435D-01  0.73963398D-01  0.12541533D+00  0.18980277D+00  0.23676400D+00
  0.20317874D+00  0.77806662D-01 -0.48098538D-04 -0.51606575D-03 -0.19023155D-02
 -0.55622590D-02 -0.67027926D-02  0.80742240D-02  0.10851650D-01 -0.93623957D-03
  0.28926057D-03  0.14520594D+01  0.14080092D+01  0.94983466D+00  0.85446593D+00
  0.82854452D+00  0.55893124D+00  0.43146645D-01  0.41837732D-01  0.28223487D-01
  0.32722806D+00  0.17538022D+00  0.14470763D-01  0.53293545D-01  0.16127495D-01
  0.43731670D-02  0.16795786D-02  0.15883370D-03  0.86876104D-04  0.37344242D-03
 -0.27795929D-03 -0.95483133D-04  0.51795924D-02 -0.62598371D-01 -0.81094268D-01
  0.11375322D-02 -0.79315318D-03 -0.34437899D-03 -0.16343281D-02 -0.15034105D-01
 -0.97115030D-02  0.27878406D-03 -0.13404344D-03 -0.14474062D-03 -0.38797160D-03
 -0.92543930D-03  0.73911947D-03 -0.86987986D-02  0.38614032D-02  0.23092270D-03
  0.17494711D-01 -0.86456035D-02 -0.93944584D-03  0.86016850D-02 -0.29386061D-02
  0.24667775D-03 -0.17713445D-02 -0.22020484D-03  0.71040374D-04 -0.16782552D-03
  0.33394079D-03 -0.34933322D-03 -0.41579681D-03  0.32667373D-03  0.13621209D-03
  0.91927336D-03  0.14548272D-02 -0.22365606D-01 -0.40337292D-01 -0.59477313D-01
 -0.40845876D-01 -0.57810773D-02  0.64081999D-04  0.18329229D-01 -0.11952335D-01
 -0.13107886D-01  0.99474843D-02 -0.49461420D-02 -0.56153150D-02  0.15692455D-02
  0.25937584D-04 -0.90827017D-04  0.39359098D-02 -0.26431786D-02 -0.12927313D-02
  0.94419047D-02  0.63866905D-02 -0.11403789D-01  0.13794644D-03 -0.49320652D-04
 -0.88625787D-04  0.94092965D-03  0.49070560D-03 -0.52666727D-03  0.21892307D-01
  0.39483678D-01  0.58218660D-01  0.40881034D-01  0.38079913D-02 -0.76362883D-04
  0.24249524D-01 -0.12468622D-01  0.22163943D-01  0.13056951D-01 -0.30872903D-02
  0.73503959D-02  0.18970895D-02  0.34314107D-03  0.78203903D-04 -0.43006262D-02
  0.62483849D-03  0.36757877D-02 -0.11227246D-01  0.95489813D-02 -0.13125563D-01
  0.11752434D-03 -0.23891979D-03  0.12139544D-03 -0.12025275D-02  0.91731537D-03
  0.12435939D-03
MO    4     MO 0.0        OCC NO =    2.0000000  ORB. ENERGY =    0.000000
  0.35890937D-01  0.66894806D-01  0.11342954D+00  0.17166355D+00  0.21413675D+00
  0.18376119D+00  0.70370774D-01 -0.10734314D-02 -0.11517215D-01 -0.42454621D-01
 -0.12413482D+00 -0.14958850D+00  0.18019520D+00  0.11631958D+00  0.52835668D-01
  0.43392957D-02 -0.83645403D+00 -0.81107904D+00 -0.54714913D+00  0.87989041D+00
  0.85319772D+00  0.57556214D+00  0.19738691D+00  0.19139891D+00  0.12911657D+00
 -0.18849865D+00  0.17758607D+00  0.47037110D-01 -0.30699571D-01  0.15549237D-01
  0.11454918D-01 -0.96751576D-03  0.15513963D-03  0.21251654D-03 -0.88916710D-02
  0.12524156D-01 -0.36324846D-02 -0.29836872D-02  0.36059586D-01 -0.86671775D-01
 -0.12767211D-02  0.23549936D-02 -0.10782725D-02  0.94144931D-03  0.86603465D-02
 -0.78037317D-02  0.27203879D-03 -0.71880541D-04 -0.20015825D-03  0.22348976D-03
  0.53309626D-03  0.10353770D-02  0.50109143D-02  0.35340493D-02  0.16215247D-02
 -0.10077771D-01 -0.81250679D-02  0.84286699D-03 -0.49549724D-02 -0.24770800D-02
 -0.57074411D-02  0.10203772D-02  0.12684827D-03  0.13052256D-03 -0.32567257D-03
 -0.19236550D-03 -0.35738403D-04 -0.51345157D-03 -0.18817933D-03 -0.35582929D-03
  0.14904693D-02 -0.83804840D-03 -0.14849414D-01 -0.26781529D-01 -0.39489349D-01
 -0.39844669D-01 -0.87031982D-02 -0.15392380D-06 -0.10558492D-01 -0.38065568D-02
 -0.43465166D-02 -0.57302156D-02 -0.58257854D-02 -0.40308455D-02 -0.90395869D-03
 -0.28389717D-03 -0.22011102D-04  0.33465987D-02 -0.29206138D-02 -0.42598486D-03
 -0.54389781D-02 -0.36790321D-02 -0.90908226D-02  0.19977608D-03 -0.17648198D-03
 -0.23294102D-04 -0.54201943D-03 -0.28266935D-03 -0.54557423D-03  0.32925960D-01
  0.59383326D-01  0.87560679D-01  0.45605306D-01  0.11528198D-02 -0.14020103D-03
 -0.13968858D-01 -0.24036625D-01  0.36302397D-01 -0.75214135D-02 -0.27102109D-02
  0.93485556D-02 -0.10928122D-02  0.61257365D-03  0.12925399D-03 -0.58049443D-02
  0.74632956D-03  0.50586147D-02  0.64674182D-02 -0.55006593D-02 -0.18364645D-01
  0.22106686D-03 -0.33816060D-03  0.11709373D-03  0.69271200D-03 -0.52841650D-03
  0.30345571D-03
MO    5     MO 0.0        OCC NO =    2.0000000  ORB. ENERGY =    0.000000
  0.50237929D+00  0.93635239D+00  0.15877171D+01  0.24028409D+01  0.29973547D+01
  0.25721762D+01  0.98500685D+00  0.62947340D-03  0.67538365D-02  0.24895913D-01
  0.72794189D-01  0.87720538D-01 -0.10566868D+00 -0.60073593D-02 -0.25529901D-01
 -0.15272411D-02 -0.12673480D+00 -0.12289012D+00 -0.82900950D-01 -0.45987770D-01
 -0.44592667D-01 -0.30081950D-01 -0.10671680D-01 -0.10347940D-01 -0.69806592D-02
 -0.28560252D-01 -0.43538674D-02 -0.22354548D-02 -0.46514259D-02  0.10115621D-02
 -0.25464087D-02 -0.14659253D-03  0.33974424D-04 -0.48929251D-04  0.44448774D-02
 -0.45806929D-02  0.13581550D-03 -0.45207145D-03  0.54635450D-02  0.24495419D-02
  0.16974093D-02 -0.16385707D-02 -0.58838617D-04  0.14264309D-03  0.13121669D-02
 -0.24002127D-02 -0.39553334D-04  0.21689568D-05  0.37384377D-04  0.33861909D-04
  0.80771739D-04 -0.46602186D-03  0.75922548D-03 -0.11158606D-03 -0.17817330D-03
 -0.15269270D-02 -0.14193991D-02 -0.34654484D-03 -0.75074947D-03  0.17541572D-02
  0.88106474D-03  0.15460179D-03  0.19219335D-04 -0.16189353D-04 -0.12508647D-04
 -0.29146135D-04 -0.15638270D-03 -0.25669654D-03 -0.28511871D-04  0.20495076D-03
  0.29422248D-03 -0.12697637D-03 -0.49798622D-02 -0.89813865D-02 -0.13243049D-01
 -0.13949149D-02  0.16675112D-02  0.45731640D-04 -0.15997632D-02 -0.53581353D-02
 -0.41954425D-02 -0.86820995D-03  0.16319820D-03 -0.48639835D-03 -0.13696272D-03
  0.21550123D-03  0.28706931D-04  0.83188576D-03 -0.59773748D-03 -0.23414828D-03
 -0.82408329D-03 -0.55742619D-03 -0.25895642D-02 -0.42746100D-04  0.83992021D-04
 -0.41245921D-04 -0.82123727D-04 -0.42828465D-04  0.61096711D-04 -0.89557463D-02
 -0.16152057D-01 -0.23816199D-01 -0.11402261D-01 -0.14920566D-03  0.75366650D-05
 -0.21164826D-02  0.11365517D-01 -0.11148287D-01 -0.11396021D-02  0.27214663D-02
 -0.30923711D-02 -0.16557674D-03  0.17978292D-04 -0.98985118D-04  0.32219064D-02
 -0.19419353D-02 -0.12799711D-02  0.97990674D-03 -0.83342887D-03  0.98231375D-02
 -0.24652646D-04  0.14480011D-04  0.10172635D-04  0.10495582D-03 -0.80062689D-04
 -0.17971241D-04
END DATA
 TOTAL ENERGY =    -76.457721968793 THE VIRIAL(-V/T)=   2.00447154
