 71
GAUSSIAN              5 MOL ORBITALS    126 PRIMITIVES        3 NUCLEI   B3LYP   B3LYP   B3LYP
  O    1    (CENTRE  1)   0.00000000 -0.09448631  0.00815606  CHARGE =  8.0
  H    2    (CENTRE  2)   0.00000000 -1.44255835 -1.09730160  CHARGE =  1.0
  H    3    (CENTRE  3)   0.00000000  1.34807204 -1.09730160  CHARGE =  1.0
CENTRE ASSIGNMENTS    1  1  1  1  1  1  1  1  1  1  1  1  1  1  1  1  1  1  1  1
CENTRE ASSIGNMENTS    1  1  1  1  1  1  1  1  1  1  1  1  1  1  1  1  1  1  1  1
CENTRE ASSIGNMENTS    1  1  1  1  1  1  1  1  1  1  1  1  1  1  1  1  1  1  1  1
CENTRE ASSIGNMENTS    1  1  1  1  1  1  1  1  1  1  1  1  2  2  2  2  2  2  2  2
CENTRE ASSIGNMENTS    2  2  2  2  2  2  2  2  2  2  2  2  2  2  2  2  2  2  2  3
CENTRE ASSIGNMENTS    3  3  3  3  3  3  3  3  3  3  3  3  3  3  3  3  3  3  3  3
CENTRE ASSIGNMENTS    3  3  3  3  3  3
TYPE ASSIGNMENTS      1  1  1  1  1  1  1  1  1  1  1  1  1  1  1  1  2  2  2  3
TYPE ASSIGNMENTS      3  3  4  4  4  2  3  4  2  3  4  2  3  4  5  6  7  8  9 10
TYPE ASSIGNMENTS      5  6  7  8  9 10  5  6  7  8  9 10 11 12 13 17 14 15 18 19
TYPE ASSIGNMENTS     16 20 11 12 13 17 14 15 18 19 16 20  1  1  1  1  1  1  2  3
TYPE ASSIGNMENTS      4  2  3  4  2  3  4  5  6  7  8  9 10  5  6  7  8  9 10  1
TYPE ASSIGNMENTS      1  1  1  1  1  2  3  4  2  3  4  2  3  4  5  6  7  8  9 10
TYPE ASSIGNMENTS      5  6  7  8  9 10
EXPONENTS  0.1533000D+05 0.2299000D+04 0.5224000D+03 0.1473000D+03 0.4755000D+02
EXPONENTS  0.1676000D+02 0.6207000D+01 0.5224000D+03 0.1473000D+03 0.4755000D+02
EXPONENTS  0.1676000D+02 0.6207000D+01 0.6882000D+00 0.1752000D+01 0.2384000D+00
EXPONENTS  0.7376000D-01 0.3446000D+02 0.7749000D+01 0.2280000D+01 0.3446000D+02
EXPONENTS  0.7749000D+01 0.2280000D+01 0.3446000D+02 0.7749000D+01 0.2280000D+01
EXPONENTS  0.7156000D+00 0.7156000D+00 0.7156000D+00 0.2140000D+00 0.2140000D+00
EXPONENTS  0.2140000D+00 0.5974000D-01 0.5974000D-01 0.5974000D-01 0.2314000D+01
EXPONENTS  0.2314000D+01 0.2314000D+01 0.2314000D+01 0.2314000D+01 0.2314000D+01
EXPONENTS  0.6450000D+00 0.6450000D+00 0.6450000D+00 0.6450000D+00 0.6450000D+00
EXPONENTS  0.6450000D+00 0.2140000D+00 0.2140000D+00 0.2140000D+00 0.2140000D+00
EXPONENTS  0.2140000D+00 0.2140000D+00 0.1428000D+01 0.1428000D+01 0.1428000D+01
EXPONENTS  0.1428000D+01 0.1428000D+01 0.1428000D+01 0.1428000D+01 0.1428000D+01
EXPONENTS  0.1428000D+01 0.1428000D+01 0.5000000D+00 0.5000000D+00 0.5000000D+00
EXPONENTS  0.5000000D+00 0.5000000D+00 0.5000000D+00 0.5000000D+00 0.5000000D+00
EXPONENTS  0.5000000D+00 0.5000000D+00 0.3387000D+02 0.5095000D+01 0.1159000D+01
EXPONENTS  0.3258000D+00 0.1027000D+00 0.2526000D-01 0.1407000D+01 0.1407000D+01
EXPONENTS  0.1407000D+01 0.3880000D+00 0.3880000D+00 0.3880000D+00 0.1020000D+00
EXPONENTS  0.1020000D+00 0.1020000D+00 0.1057000D+01 0.1057000D+01 0.1057000D+01
EXPONENTS  0.1057000D+01 0.1057000D+01 0.1057000D+01 0.2470000D+00 0.2470000D+00
EXPONENTS  0.2470000D+00 0.2470000D+00 0.2470000D+00 0.2470000D+00 0.3387000D+02
EXPONENTS  0.5095000D+01 0.1159000D+01 0.3258000D+00 0.1027000D+00 0.2526000D-01
EXPONENTS  0.1407000D+01 0.1407000D+01 0.1407000D+01 0.3880000D+00 0.3880000D+00
EXPONENTS  0.3880000D+00 0.1020000D+00 0.1020000D+00 0.1020000D+00 0.1057000D+01
EXPONENTS  0.1057000D+01 0.1057000D+01 0.1057000D+01 0.1057000D+01 0.1057000D+01
EXPONENTS  0.2470000D+00 0.2470000D+00 0.2470000D+00 0.2470000D+00 0.2470000D+00
EXPONENTS  0.2470000D+00
MO    1     MO 0.0        OCC NO =    2.0000000  ORB. ENERGY =    0.000000
  0.18586297D+00  0.34641801D+00  0.58740042D+00  0.88896807D+00  0.11089176D+01
  0.95161628D+00  0.36441848D+00 -0.11118523D-03 -0.11929445D-02 -0.43974182D-02
 -0.12857793D-01 -0.15494266D-01  0.18664485D-01  0.33308194D-01 -0.31937967D-02
 -0.11658288D-02  0.16007322D+01  0.15521717D+01  0.10470859D+01  0.75287402D-01
  0.73003455D-01  0.49247699D-01 -0.29753057D+00 -0.28850457D+00 -0.19462348D+00
  0.36120057D+00  0.15740070D-01 -0.64414148D-01  0.58906719D-01  0.16500075D-02
 -0.72671328D-02  0.18572030D-02  0.15348813D-04 -0.14172836D-03 -0.11196909D-01
  0.26149591D-02  0.85819498D-02 -0.19418042D-02 -0.68375210D-01 -0.57494545D-02
 -0.14834418D-02 -0.94912624D-03  0.24325680D-02  0.60045835D-03 -0.16914877D-01
 -0.11053145D-02  0.18390662D-03 -0.29362641D-03  0.10971980D-03  0.14446214D-03
 -0.10454139D-02 -0.29273717D-04 -0.96926182D-02  0.44294320D-03 -0.18898321D-04
  0.19671953D-01 -0.70404386D-03  0.46573805D-02  0.94059012D-02 -0.62478573D-03
 -0.46006855D-02  0.67894496D-03 -0.25618798D-03 -0.30553618D-04 -0.20635985D-03
  0.32594119D-03 -0.86383367D-04 -0.10624503D-03  0.44262274D-03  0.17804422D-03
  0.72532457D-03 -0.53978349D-03  0.54400888D-02  0.98114242D-02  0.14466939D-01
  0.83317542D-02  0.70187938D-03  0.12419730D-04  0.24347705D-01  0.60314788D-02
  0.21757264D-03  0.13142739D-01  0.16966810D-02 -0.75327333D-03  0.19652676D-02
 -0.40328911D-04 -0.26765660D-03 -0.17848822D-03  0.10540391D-02 -0.87555086D-03
  0.11677127D-01  0.91719883D-02 -0.91099812D-04  0.28354041D-04  0.12963235D-04
 -0.41317276D-04  0.12431330D-02  0.84445138D-03 -0.23042649D-03  0.88448940D-02
  0.15952131D-01  0.23521407D-01  0.15064672D-01  0.18039797D-02  0.88638017D-05
  0.22179878D-01 -0.75669374D-02  0.28182186D-02  0.11999210D-01 -0.26232439D-02
  0.60738487D-03  0.18442346D-02  0.19170980D-04 -0.20603936D-03 -0.96721605D-03
  0.13834237D-02 -0.41620761D-03 -0.11015150D-01  0.80198751D-02 -0.20807610D-02
 -0.14984574D-04  0.16959462D-04 -0.19748877D-05 -0.11451421D-02  0.68677023D-03
  0.84024633D-04
MO    2     MO 0.0        OCC NO =    2.0000000  ORB. ENERGY =    0.000000
  0.18179058D+00  0.33882776D+00  0.57453008D+00  0.86949018D+00  0.10846205D+01
  0.93076572D+00  0.35643382D+00  0.25481994D-03  0.27340508D-02  0.10078226D-01
  0.29468141D-01  0.35510543D-01 -0.42776212D-01 -0.50529952D-02  0.38623038D-01
  0.74440746D-02  0.12608957D+00  0.12226447D+00  0.82478888D-01  0.11747849D+00
  0.11391462D+00  0.76846129D-01  0.14302039D+01  0.13868167D+01  0.93553836D+00
  0.28451746D-01  0.20433909D-01  0.30853603D+00  0.46400784D-02  0.26362736D-03
  0.34979807D-01  0.14629176D-03 -0.15601692D-04  0.66833168D-03  0.42804400D-01
 -0.19574752D-02 -0.40846924D-01 -0.15295579D-03 -0.53859109D-02 -0.14117457D-01
  0.58519744D-02  0.55371925D-02 -0.11389167D-01  0.47298066D-04 -0.13323838D-02
  0.86510659D-03 -0.88588269D-03  0.13602254D-02 -0.47434275D-03  0.11379273D-04
 -0.82347188D-04  0.69276096D-03 -0.76348691D-03  0.25581015D-03  0.18329699D-02
  0.15495585D-02 -0.19514501D-03 -0.17586636D-01  0.74090223D-03 -0.57228544D-03
  0.12087727D-01  0.53480451D-04 -0.20179910D-04  0.14059737D-03  0.64505618D-03
  0.25674367D-04  0.13174345D-03 -0.97036314D-04  0.34865365D-04 -0.55353556D-03
 -0.18381322D-02 -0.42518711D-04 -0.34231938D-01 -0.61738711D-01 -0.91033693D-01
 -0.65199997D-01 -0.81157327D-02 -0.70562010D-04  0.19178672D-02 -0.34683940D-01
 -0.93621430D-02  0.10352527D-02 -0.13382882D-01 -0.18511509D-02  0.15480401D-03
 -0.36502953D-04  0.10349243D-02  0.59310914D-02 -0.83441208D-02  0.24130294D-02
  0.91980654D-03  0.72247693D-03 -0.14469295D-01 -0.51695972D-04 -0.80624757D-04
  0.13232073D-03  0.97921509D-04  0.66517381D-04  0.74698728D-03 -0.26103774D-01
 -0.47079232D-01 -0.69418300D-01 -0.48217178D-01 -0.67952001D-02 -0.89797504D-04
  0.17471076D-02  0.26317850D-01 -0.11735150D-02  0.94517702D-03  0.11029958D-01
  0.64102482D-03  0.14527024D-03  0.10903521D-03  0.98855118D-03  0.38110835D-02
 -0.70390623D-02  0.32279788D-02 -0.86766269D-03  0.63172505D-03  0.73347555D-02
  0.73150927D-04 -0.14098289D-03  0.67831962D-04 -0.90202774D-04  0.54096847D-04
 -0.50976764D-03
MO    3     MO 0.0        OCC NO =    2.0000000  ORB. ENERGY =    0.000000
  0.43181903D+00  0.80483966D+00  0.13647187D+01  0.20653567D+01  0.25763697D+01
  0.22109085D+01  0.84666050D+00  0.13537663D-03  0.14525024D-02  0.53541973D-02
  0.15655359D-01  0.18865469D-01 -0.22725456D-01  0.36857984D-01 -0.18833685D-01
 -0.26586615D-02 -0.76485873D+00 -0.74165568D+00 -0.50031654D+00 -0.95568408D-01
 -0.92669209D-01 -0.62514101D-01 -0.45981591D+00 -0.44586676D+00 -0.30077908D+00
 -0.17258816D+00 -0.19583642D-01 -0.98649780D-01 -0.28146694D-01 -0.15778340D-02
 -0.11859118D-01 -0.88740513D-03 -0.17018325D-04 -0.22936019D-03 -0.14133984D-01
  0.91091643D-03  0.13223067D-01  0.92782912D-03  0.32670910D-01  0.11184475D-01
 -0.12998345D-02 -0.22905456D-02  0.35903801D-02 -0.28690984D-03  0.80822338D-02
  0.98627903D-03  0.29580142D-03 -0.45096457D-03  0.15516315D-03 -0.69026618D-04
  0.49951765D-03 -0.18978752D-03  0.46313080D-02 -0.31209223D-03 -0.18978923D-03
 -0.93996145D-02  0.11221806D-02  0.65201007D-02 -0.44943094D-02 -0.18590390D-03
 -0.59507330D-02 -0.32441216D-03  0.12241124D-03 -0.56747791D-04 -0.30223863D-03
 -0.15574059D-03 -0.78089070D-05 -0.27056739D-03 -0.21149314D-03  0.17805228D-03
  0.11772833D-02  0.25791830D-03  0.10229940D-01  0.18450119D-01  0.27204689D-01
  0.20114440D-01  0.26711285D-02  0.16206729D-04 -0.11633773D-01  0.82895243D-02
  0.12645608D-02 -0.62798379D-02  0.31461845D-02 -0.18736778D-03 -0.93904036D-03
 -0.57381625D-04 -0.39279218D-03 -0.51392499D-03  0.14767789D-02 -0.96285388D-03
 -0.55795421D-02 -0.43825416D-02  0.54576382D-03  0.31443339D-04  0.87881679D-05
 -0.40231506D-04 -0.59399141D-03 -0.40349412D-03 -0.28838292D-03  0.47898780D-02
  0.86387422D-02  0.12737820D-01  0.10556753D-01  0.20193615D-02  0.46010406D-04
 -0.10597946D-01 -0.49230163D-02 -0.27490866D-02 -0.57334393D-02 -0.25233021D-02
 -0.12921431D-02 -0.88120860D-03 -0.64863265D-04 -0.34717891D-03  0.22211568D-03
  0.11229015D-02 -0.13450172D-02  0.52632377D-02 -0.38320412D-02  0.19403048D-02
 -0.21782173D-04  0.63129799D-04 -0.41347626D-04  0.54716960D-03 -0.32815122D-03
  0.20660544D-03
MO    4     MO 0.0        OCC NO =    2.0000000  ORB. ENERGY =    0.000000
 -0.49227270D-02 -0.91751537D-02 -0.15557762D-01 -0.23545019D-01 -0.29370556D-01
 -0.25204306D-01 -0.96519103D-02 -0.23244217D-03 -0.24939520D-02 -0.91931766D-02
 -0.26880309D-01 -0.32392079D-01  0.39019692D-01  0.22702212D-01  0.12433760D-01
  0.55860864D-03 -0.15966467D+00 -0.15482102D+00 -0.10444134D+00  0.14599902D+01
  0.14156993D+01  0.95502241D+00 -0.47060452D-01 -0.45632809D-01 -0.30783623D-01
 -0.36027869D-01  0.29823209D+00 -0.13549968D-01 -0.58756373D-02  0.26846083D-01
 -0.23754612D-02 -0.18524629D-03  0.24774257D-03 -0.50050535D-04 -0.45288310D-02
  0.36578775D-02  0.87095343D-03  0.19368482D-03  0.68200698D-02 -0.13776273D+00
 -0.15151099D-02  0.95742405D-03  0.55768586D-03 -0.59892582D-04  0.16871706D-02
 -0.15995962D-01 -0.13250568D-03  0.31615840D-04  0.10088984D-03 -0.14409343D-04
  0.10427458D-03  0.13702163D-02  0.96678800D-03  0.66904661D-02  0.15076098D-03
 -0.19621745D-02 -0.13700447D-01  0.18382478D-02 -0.93818948D-03 -0.63709513D-02
 -0.22905307D-02 -0.67721211D-04  0.25553412D-04  0.93081163D-04  0.16695759D-04
 -0.32510930D-04 -0.67489060D-03  0.21043958D-03 -0.44149305D-04  0.39564711D-03
 -0.26052686D-03  0.53840582D-04 -0.34012518D-01 -0.61342976D-01 -0.90450183D-01
 -0.68084241D-01 -0.84059290D-02  0.95507606D-04 -0.24285563D-02 -0.18350286D-01
 -0.29600113D-01 -0.13109195D-02 -0.71738180D-02 -0.11812629D-01 -0.19602517D-03
  0.23458581D-03 -0.23537370D-03  0.72044498D-02 -0.25859116D-02 -0.46185382D-02
 -0.11647324D-02 -0.91485790D-03 -0.21804671D-01 -0.88552037D-05  0.19622841D-03
 -0.18737320D-03 -0.12399602D-03 -0.84229612D-04 -0.34259133D-03  0.41297751D-01
  0.74482195D-01  0.10982395D+00  0.73753749D-01  0.87116605D-02 -0.11471841D-03
 -0.22123269D-02 -0.25135642D-01  0.30121844D-01 -0.11968585D-02 -0.87817876D-02
  0.11624667D-01 -0.18395276D-03  0.19611595D-03  0.18149045D-03 -0.77682395D-02
  0.42815745D-02  0.34866650D-02  0.10987037D-02 -0.79994063D-03 -0.23082802D-01
 -0.10222432D-03 -0.74905129D-04  0.17712945D-03  0.11422194D-03 -0.68501741D-04
 -0.62284978D-03
MO    5     MO 0.0        OCC NO =    2.0000000  ORB. ENERGY =    0.000000
 -0.72312025D-01 -0.13477773D+00 -0.22853457D+00 -0.34586277D+00 -0.43143655D+00
 -0.37023675D+00 -0.14178100D+00 -0.16950729D-02 -0.18187020D-01 -0.67040780D-01
 -0.19602331D+00 -0.23621762D+00  0.28454915D+00  0.16660544D+00  0.97238262D-01
  0.81188826D-02 -0.12523286D+00 -0.12143375D+00 -0.81918490D-01 -0.19711066D+00
 -0.19113104D+00 -0.12893587D+00  0.50526002D+00  0.48993226D+00  0.33050541D+00
 -0.28258432D-01 -0.38857759D-01  0.10708031D+00 -0.46085517D-02 -0.32346940D-02
  0.17788323D-01 -0.14529779D-03 -0.31437377D-04  0.32595247D-03 -0.79249874D-02
  0.21226663D-01 -0.13301675D-01  0.15191654D-03  0.53493166D-02  0.19626609D-01
 -0.31990067D-02  0.62121262D-02 -0.30131195D-02 -0.46976701D-04  0.13233310D-02
  0.11130811D-02 -0.17890797D-03  0.33033868D-03 -0.15143071D-03 -0.11301957D-04
  0.81787685D-04 -0.26449879D-03  0.75829944D-03 -0.70457668D-03  0.25708746D-02
 -0.15390301D-02  0.14179684D-02 -0.34121875D-03 -0.73586821D-03  0.69576161D-03
 -0.73714049D-02 -0.53117081D-04  0.20042799D-04 -0.21064975D-04 -0.16359806D-03
 -0.25499924D-04 -0.63372071D-04 -0.71539002D-04 -0.34628474D-04  0.12656700D-03
  0.56233319D-03  0.42229820D-04  0.15954062D-01  0.28773808D-01  0.42426963D-01
  0.48055282D-02 -0.47966200D-02 -0.13304432D-03 -0.19048363D-02  0.14940778D-01
  0.23369974D-01 -0.10282187D-02 -0.18564730D-02  0.47125790D-02 -0.15375220D-03
 -0.50086419D-03  0.31986841D-03 -0.23562435D-02 -0.65095415D-03  0.30071977D-02
 -0.91355697D-03 -0.71756810D-03  0.87337283D-02  0.12962296D-03 -0.21933320D-03
  0.89710242D-04 -0.97256186D-04 -0.66065433D-04  0.48559909D-05  0.48671010D-02
  0.87780170D-02  0.12943181D-01 -0.14496763D-01 -0.72232330D-02 -0.11186314D-03
 -0.17352369D-02 -0.81092755D-02  0.13227469D-01 -0.93875507D-03  0.41823101D-02
  0.14800055D-02 -0.14428321D-03  0.50094084D-03  0.25071194D-03  0.21642014D-04
 -0.17211042D-02  0.16994621D-02  0.86176740D-03 -0.62743283D-03 -0.16326078D-02
  0.14548240D-03 -0.21523577D-03  0.69753378D-04  0.89589896D-04 -0.53729289D-04
  0.93008142D-04
END DATA
 TOTAL ENERGY =    -76.464424752151 THE VIRIAL(-V/T)=   2.00483478
