 72
GAUSSIAN              5 MOL ORBITALS    126 PRIMITIVES        3 NUCLEI   B3LYP   B3LYP   B3LYP
  O    1    (CENTRE  1)   0.00000000  0.00000000 -0.08633025  CHARGE =  8.0
  H    2    (CENTRE  2)   0.00000000 -1.44255835 -1.09730160  CHARGE =  1.0
  H    3    (CENTRE  3)   0.00000000  1.34807204 -1.09730160  CHARGE =  1.0
CENTRE ASSIGNMENTS    1  1  1  1  1  1  1  1  1  1  1  1  1  1  1  1  1  1  1  1
CENTRE ASSIGNMENTS    1  1  1  1  1  1  1  1  1  1  1  1  1  1  1  1  1  1  1  1
CENTRE ASSIGNMENTS    1  1  1  1  1  1  1  1  1  1  1  1  1  1  1  1  1  1  1  1
CENTRE ASSIGNMENTS    1  1  1  1  1  1  1  1  1  1  1  1  2  2  2  2  2  2  2  2
CENTRE ASSIGNMENTS    2  2  2  2  2  2  2  2  2  2  2  2  2  2  2  2  2  2  2  3
CENTRE ASSIGNMENTS    3  3  3  3  3  3  3  3  3  3  3  3  3  3  3  3  3  3  3  3
CENTRE ASSIGNMENTS    3  3  3  3  3  3
TYPE ASSIGNMENTS      1  1  1  1  1  1  1  1  1  1  1  1  1  1  1  1  2  2  2  3
TYPE ASSIGNMENTS      3  3  4  4  4  2  3  4  2  3  4  2  3  4  5  6  7  8  9 10
TYPE ASSIGNMENTS      5  6  7  8  9 10  5  6  7  8  9 10 11 12 13 17 14 15 18 19
TYPE ASSIGNMENTS     16 20 11 12 13 17 14 15 18 19 16 20  1  1  1  1  1  1  2  3
TYPE ASSIGNMENTS      4  2  3  4  2  3  4  5  6  7  8  9 10  5  6  7  8  9 10  1
TYPE ASSIGNMENTS      1  1  1  1  1  2  3  4  2  3  4  2  3  4  5  6  7  8  9 10
TYPE ASSIGNMENTS      5  6  7  8  9 10
EXPONENTS  0.1533000D+05 0.2299000D+04 0.5224000D+03 0.1473000D+03 0.4755000D+02
EXPONENTS  0.1676000D+02 0.6207000D+01 0.5224000D+03 0.1473000D+03 0.4755000D+02
EXPONENTS  0.1676000D+02 0.6207000D+01 0.6882000D+00 0.1752000D+01 0.2384000D+00
EXPONENTS  0.7376000D-01 0.3446000D+02 0.7749000D+01 0.2280000D+01 0.3446000D+02
EXPONENTS  0.7749000D+01 0.2280000D+01 0.3446000D+02 0.7749000D+01 0.2280000D+01
EXPONENTS  0.7156000D+00 0.7156000D+00 0.7156000D+00 0.2140000D+00 0.2140000D+00
EXPONENTS  0.2140000D+00 0.5974000D-01 0.5974000D-01 0.5974000D-01 0.2314000D+01
EXPONENTS  0.2314000D+01 0.2314000D+01 0.2314000D+01 0.2314000D+01 0.2314000D+01
EXPONENTS  0.6450000D+00 0.6450000D+00 0.6450000D+00 0.6450000D+00 0.6450000D+00
EXPONENTS  0.6450000D+00 0.2140000D+00 0.2140000D+00 0.2140000D+00 0.2140000D+00
EXPONENTS  0.2140000D+00 0.2140000D+00 0.1428000D+01 0.1428000D+01 0.1428000D+01
EXPONENTS  0.1428000D+01 0.1428000D+01 0.1428000D+01 0.1428000D+01 0.1428000D+01
EXPONENTS  0.1428000D+01 0.1428000D+01 0.5000000D+00 0.5000000D+00 0.5000000D+00
EXPONENTS  0.5000000D+00 0.5000000D+00 0.5000000D+00 0.5000000D+00 0.5000000D+00
EXPONENTS  0.5000000D+00 0.5000000D+00 0.3387000D+02 0.5095000D+01 0.1159000D+01
EXPONENTS  0.3258000D+00 0.1027000D+00 0.2526000D-01 0.1407000D+01 0.1407000D+01
EXPONENTS  0.1407000D+01 0.3880000D+00 0.3880000D+00 0.3880000D+00 0.1020000D+00
EXPONENTS  0.1020000D+00 0.1020000D+00 0.1057000D+01 0.1057000D+01 0.1057000D+01
EXPONENTS  0.1057000D+01 0.1057000D+01 0.1057000D+01 0.2470000D+00 0.2470000D+00
EXPONENTS  0.2470000D+00 0.2470000D+00 0.2470000D+00 0.2470000D+00 0.3387000D+02
EXPONENTS  0.5095000D+01 0.1159000D+01 0.3258000D+00 0.1027000D+00 0.2526000D-01
EXPONENTS  0.1407000D+01 0.1407000D+01 0.1407000D+01 0.3880000D+00 0.3880000D+00
EXPONENTS  0.3880000D+00 0.1020000D+00 0.1020000D+00 0.1020000D+00 0.1057000D+01
EXPONENTS  0.1057000D+01 0.1057000D+01 0.1057000D+01 0.1057000D+01 0.1057000D+01
EXPONENTS  0.2470000D+00 0.2470000D+00 0.2470000D+00 0.2470000D+00 0.2470000D+00
EXPONENTS  0.2470000D+00
MO    1     MO 0.0        OCC NO =    2.0000000  ORB. ENERGY =    0.000000
  0.13890522D+00  0.25889649D+00  0.43899538D+00  0.66437282D+00  0.82875272D+00
  0.71119314D+00  0.27234919D+00 -0.79101060D-03 -0.84870246D-02 -0.31284771D-01
 -0.91474835D-01 -0.11023162D+00  0.13278567D+00  0.98428001D-01 -0.17589967D-02
 -0.35183944D-02  0.14885029D+00  0.14433471D+00  0.97367341D-01  0.16247002D+00
  0.15754127D+00  0.10627641D+00 -0.11358403D+01 -0.11013830D+01 -0.74298645D+00
  0.33538273D-01  0.28587000D-01 -0.24439551D+00  0.53933470D-02  0.54515770D-03
 -0.25468151D-01  0.16683779D-03 -0.16943459D-04 -0.52422755D-03 -0.44345009D-01
  0.14422592D-01  0.29922418D-01  0.21164322D-03 -0.64387862D-02 -0.19446223D-01
 -0.56989975D-02 -0.30491893D-02  0.87481868D-02 -0.75356261D-04 -0.14864893D-02
  0.11201945D-02  0.94881091D-03 -0.13773878D-02  0.42857688D-03 -0.14907855D-04
 -0.83506992D-04  0.85074072D-03 -0.90748918D-03  0.37449215D-03  0.60204428D-03
  0.20117151D-02 -0.68549631D-03  0.16650867D-01  0.71075244D-03 -0.43798013D-03
 -0.18456999D-01 -0.55198342D-04 -0.84570462D-05  0.17448090D-03 -0.81457133D-03
 -0.52348011D-05  0.22287049D-03 -0.55411298D-03  0.30605940D-04 -0.74631321D-03
  0.29978270D-02  0.55702368D-04  0.25778853D-01  0.46493223D-01  0.68554230D-01
  0.38432767D-01  0.29358818D-02  0.27551820D-04  0.21969914D-02  0.27813513D-01
  0.43897385D-02  0.11879439D-02  0.75638112D-02 -0.12664795D-02  0.18005229D-03
 -0.25841346D-03 -0.97978137D-03 -0.26100595D-02  0.54492452D-02 -0.28391857D-02
  0.10992000D-02  0.74595627D-03  0.45729920D-02  0.68722373D-04 -0.30082289D-04
 -0.38640083D-04  0.11889004D-03  0.68346282D-04 -0.83792511D-03  0.36771521D-01
  0.66318952D-01  0.97787255D-01  0.59680176D-01  0.46363088D-02  0.51622034D-05
  0.24262987D-02 -0.38872003D-01  0.14667377D-01  0.13093449D-02 -0.10322964D-01
  0.11681206D-02  0.19205058D-03  0.33508442D-03 -0.10533559D-02 -0.50492598D-02
  0.74426989D-02 -0.23934391D-02 -0.11835254D-02  0.86273803D-03 -0.12566990D-01
  0.23284797D-03 -0.99367371D-04 -0.13348060D-03 -0.12896246D-03  0.83155849D-04
  0.11419914D-02
MO    2     MO 0.0        OCC NO =    2.0000000  ORB. ENERGY =    0.000000
  0.47193626D+00  0.87961160D+00  0.14915051D+01  0.22572343D+01  0.28157219D+01
  0.24163083D+01  0.92531771D+00  0.51208373D-03  0.54943224D-02  0.20253107D-01
  0.59218896D-01  0.71361649D-01 -0.85962669D-01  0.21298578D-02 -0.55437651D-02
  0.10165308D-02  0.40999628D+00  0.39755847D+00  0.26819060D+00 -0.54615502D-01
 -0.52958665D-01 -0.35725603D-01  0.38124277D+00  0.36967724D+00  0.24938209D+00
  0.92378506D-01 -0.80884841D-02  0.81398576D-01  0.14855545D-01  0.36195695D-03
  0.73707967D-02  0.45954143D-03  0.20855167D-04  0.15014711D-03  0.14185555D-01
 -0.42184275D-02 -0.99671273D-02  0.58295442D-03 -0.17735125D-01  0.49157721D-02
  0.23237274D-02  0.60669850D-03 -0.29304259D-02 -0.20756283D-03 -0.40944166D-02
 -0.10637474D-02 -0.36194787D-03  0.49368424D-03 -0.13173637D-03 -0.41062502D-04
 -0.23001337D-03 -0.39409651D-03 -0.24996068D-02 -0.12546576D-03  0.43491136D-03
  0.55411092D-02 -0.36986165D-03 -0.43683494D-02  0.19577111D-02  0.74625894D-03
  0.30636154D-02 -0.15203944D-03 -0.23294261D-04 -0.51857200D-04  0.15194008D-03
 -0.14418843D-04 -0.76910702D-04 -0.76523283D-04  0.84301627D-04  0.23248230D-03
 -0.37929694D-03  0.15342774D-03 -0.11304332D-01 -0.20387829D-01 -0.30061842D-01
 -0.16319864D-01 -0.87191549D-03  0.34280677D-05  0.60514382D-02 -0.13318784D-01
 -0.42502218D-02  0.32720970D-02 -0.37258275D-02 -0.56065195D-03  0.49593970D-03
  0.10865271D-03  0.29437621D-03  0.24862110D-02 -0.33949510D-02  0.90874000D-03
  0.30276590D-02  0.20546772D-02 -0.60001694D-02 -0.24444391D-04  0.37891424D-04
 -0.13447033D-04  0.32747317D-03  0.18825440D-03  0.26257004D-03 -0.15240415D-01
 -0.27486717D-01 -0.40529148D-01 -0.25408375D-01 -0.19899125D-02 -0.74257217D-05
  0.66830469D-02  0.18471270D-01 -0.89576584D-02  0.36064864D-02  0.55713772D-02
 -0.20867850D-02  0.52898806D-03 -0.39436989D-04  0.26708525D-03  0.39176619D-02
 -0.44973429D-02  0.57968098D-03 -0.32599266D-02  0.23763433D-02  0.10493261D-01
 -0.64673504D-04  0.34332513D-04  0.30340990D-04 -0.35521683D-03  0.22904617D-03
 -0.32020435D-03
MO    3     MO 0.0        OCC NO =    2.0000000  ORB. ENERGY =    0.000000
 -0.12615068D+00 -0.23512412D+00 -0.39868598D+00 -0.60336884D+00 -0.75265507D+00
 -0.64589003D+00 -0.24734157D+00 -0.23510451D-03 -0.25225171D-02 -0.92984731D-02
 -0.27188190D-01 -0.32763091D-01  0.39466615D-01  0.93793051D-02  0.14083034D-01
  0.12214250D-02  0.16945621D+01  0.16431552D+01  0.11084628D+01 -0.26297820D+00
 -0.25500039D+00 -0.17202176D+00  0.11229785D+00  0.10889114D+00  0.73457317D-01
  0.38181106D+00 -0.52378984D-01  0.23695285D-01  0.61399689D-01 -0.38978640D-02
  0.33511541D-02  0.18993379D-02 -0.24562018D-04  0.65961539D-04  0.81384008D-03
  0.25258338D-02 -0.33396739D-02  0.24094181D-02 -0.73301323D-01  0.24713350D-01
 -0.30853019D-03  0.10765316D-02 -0.76800145D-03 -0.85788120D-03 -0.16922698D-01
  0.21937869D-02 -0.76178532D-04  0.10127444D-03 -0.25095906D-04 -0.16971608D-03
 -0.95067188D-03 -0.45169956D-03 -0.10331164D-01 -0.12988158D-02  0.10976136D-03
  0.22902046D-01  0.22950061D-02 -0.95476544D-03  0.80914465D-02  0.16014412D-02
  0.62548135D-03 -0.62839662D-03 -0.96277879D-04 -0.35854081D-04  0.36549987D-04
 -0.59594749D-04  0.55824931D-04  0.93306261D-04  0.34842839D-03  0.51737312D-04
 -0.20295622D-03  0.63413463D-03  0.78209000D-02  0.14105315D-01  0.20798279D-01
  0.11916526D-01  0.74257240D-03 -0.31496373D-04  0.25011295D-01  0.61596213D-02
  0.79163122D-02  0.13523956D-01  0.13932237D-02  0.27390821D-02  0.20497762D-02
 -0.53965831D-04  0.13320890D-03 -0.18449420D-02  0.10586861D-02  0.78625590D-03
  0.12513665D-01  0.84922189D-02  0.58378503D-02  0.18879433D-04 -0.52387094D-04
  0.33507660D-04  0.13534845D-02  0.77807722D-03  0.13350217D-03 -0.61941615D-02
 -0.11171425D-01 -0.16472260D-01 -0.15139677D-01 -0.23382646D-02 -0.15654456D-05
  0.27621807D-01  0.36810658D-02 -0.31394413D-02  0.14906026D-01  0.20066622D-02
 -0.13507486D-02  0.21863689D-02  0.88090484D-05  0.76573152D-04  0.10117041D-02
 -0.91098594D-03 -0.10071814D-03 -0.13473654D-01  0.98217020D-02  0.27476079D-02
 -0.20592607D-04  0.13177950D-04  0.74146579D-05 -0.14681523D-02  0.94667436D-03
 -0.39992999D-04
MO    4     MO 0.0        OCC NO =    2.0000000  ORB. ENERGY =    0.000000
 -0.17511152D-01 -0.32637907D-01 -0.55342159D-01 -0.83754472D-01 -0.10447710D+00
 -0.89656897D-01 -0.34333829D-01  0.23733912D-03  0.25464930D-02  0.93868527D-02
  0.27446607D-01  0.33074496D-01 -0.39841735D-01 -0.25980446D-01 -0.13991749D-01
 -0.80886654D-03  0.32709603D+00  0.31717312D+00  0.21396311D+00  0.14461361D+01
  0.14022656D+01  0.94596009D+00  0.99190349D-02  0.96181273D-02  0.64883319D-02
  0.73699796D-01  0.28606483D+00  0.53664840D-02  0.11851790D-01  0.20986452D-01
  0.13660342D-02  0.36662327D-03  0.12206728D-03  0.33917209D-04  0.38401972D-02
 -0.43106921D-02  0.47049486D-03  0.46508245D-03 -0.14149125D-01 -0.13315014D+00
  0.12685905D-02 -0.10724306D-02 -0.19615987D-03 -0.16559413D-03 -0.32665355D-02
 -0.11176490D-01  0.13506865D-03 -0.51307151D-04 -0.83761498D-04 -0.32759764D-04
 -0.18350522D-03  0.25080537D-02 -0.19941923D-02  0.71176257D-02 -0.15597829D-03
  0.44207104D-02 -0.11770683D-01 -0.12311908D-02  0.15618666D-02 -0.95821937D-02
  0.16991257D-02 -0.12129744D-03 -0.18584218D-04  0.14570413D-03 -0.20044462D-04
 -0.11503388D-04 -0.28113600D-03 -0.15983158D-03  0.67256043D-04 -0.15597638D-03
  0.21996497D-03  0.12240503D-03 -0.41682704D-01 -0.75176473D-01 -0.11084767D+00
 -0.76605871D-01 -0.87905596D-02  0.78744385D-04  0.48278521D-02 -0.30460830D-01
 -0.31595785D-01  0.26104870D-02 -0.10520343D-01 -0.11764708D-01  0.39566190D-03
  0.23585680D-04 -0.21734931D-03  0.85451089D-02 -0.63916299D-02 -0.21534789D-02
  0.24154737D-02  0.16392265D-02 -0.25260464D-01 -0.24074150D-04  0.97877205D-04
 -0.73803055D-04  0.26125889D-03  0.15018982D-03 -0.48477483D-03  0.35598449D-01
  0.64203269D-01  0.94667683D-01  0.73533879D-01  0.90307033D-02 -0.54132755D-04
  0.53317510D-02 -0.24738797D-01  0.31198281D-01  0.28772636D-02 -0.92644317D-02
  0.11740181D-01  0.42202796D-03  0.50549654D-04  0.20802902D-03 -0.79975134D-02
  0.48629070D-02  0.31346064D-02 -0.26007774D-02  0.18958524D-02 -0.24168302D-01
  0.13059860D-03 -0.20268643D-03  0.72087829D-04 -0.28339285D-03  0.18273359D-03
 -0.17090752D-03
MO    5     MO 0.0        OCC NO =    2.0000000  ORB. ENERGY =    0.000000
 -0.32771363D-01 -0.61080432D-01 -0.10357046D+00 -0.15674287D+00 -0.19552438D+00
 -0.16778900D+00 -0.64254275D-01 -0.14053279D-02 -0.15078246D-01 -0.55581255D-01
 -0.16251633D+00 -0.19584008D+00  0.23591013D+00  0.14092852D+00  0.10301058D+00
  0.10442143D-01 -0.16263552D+00 -0.15770175D+00 -0.10638467D+00  0.17944454D+00
  0.17400085D+00  0.11737994D+00  0.11115537D+01  0.10778332D+01  0.72709990D+00
 -0.36644300D-01  0.35356126D-01  0.23920517D+00 -0.58928325D-02  0.30064801D-02
  0.32936351D-01 -0.18228888D-03  0.26650758D-04  0.65421403D-03  0.11378037D-01
  0.20213538D-01 -0.31591576D-01 -0.23124380D-03  0.70350913D-02 -0.15701998D-01
 -0.21216008D-04  0.77986242D-02 -0.77774082D-02  0.82335112D-04  0.16241552D-02
 -0.12768956D-02 -0.56614530D-03  0.93594307D-03 -0.36979777D-03  0.16288493D-04
  0.91240692D-04  0.12295185D-03  0.99153303D-03  0.80871572D-03  0.24773436D-02
 -0.21980229D-02 -0.13206932D-02 -0.81971492D-02 -0.77657623D-03 -0.11054540D-02
  0.76511849D-03  0.60310339D-04  0.92402653D-05 -0.51572078D-04 -0.21978917D-04
  0.57196034D-05  0.26326215D-04 -0.49319864D-04 -0.33440399D-04  0.12839002D-03
  0.11525661D-03 -0.60861044D-04 -0.72480510D-02 -0.13072158D-01 -0.19274890D-01
 -0.35874933D-01 -0.94536378D-02 -0.13594196D-03 -0.24004579D-02 -0.52040161D-02
  0.12240041D-01 -0.12979611D-02 -0.91121437D-02  0.23056117D-02 -0.19672718D-03
 -0.47745646D-03  0.79619182D-03  0.18417353D-02 -0.53952729D-02  0.35535376D-02
 -0.12009985D-02 -0.81504034D-03 -0.91833282D-03  0.14956787D-03 -0.28099859D-03
  0.13143072D-03 -0.12990062D-03 -0.74675928D-04  0.31104612D-03  0.22913682D-02
  0.41325769D-02  0.60934822D-02 -0.19284911D-01 -0.69736805D-02 -0.13917917D-03
 -0.26510017D-02 -0.41272873D-03  0.20877925D-01 -0.14306052D-02  0.68725608D-02
  0.53465580D-02 -0.20983666D-03  0.40071482D-03  0.92547463D-03 -0.28847587D-03
 -0.42372703D-02  0.45257462D-02  0.12931334D-02 -0.94263742D-03 -0.50282092D-02
  0.98173032D-04 -0.27473537D-03  0.17656234D-03  0.14090585D-03 -0.90857031D-04
 -0.52246052D-03
END DATA
 TOTAL ENERGY =    -76.459910799729 THE VIRIAL(-V/T)=   2.00317655
