 73
GAUSSIAN              5 MOL ORBITALS    126 PRIMITIVES        3 NUCLEI   B3LYP   B3LYP   B3LYP
  O    1    (CENTRE  1)   0.00000000  0.00000000  0.00815606  CHARGE =  8.0
  H    2    (CENTRE  2)   0.09448631 -1.44255835 -1.09730160  CHARGE =  1.0
  H    3    (CENTRE  3)   0.00000000  1.34807204 -1.09730160  CHARGE =  1.0
CENTRE ASSIGNMENTS    1  1  1  1  1  1  1  1  1  1  1  1  1  1  1  1  1  1  1  1
CENTRE ASSIGNMENTS    1  1  1  1  1  1  1  1  1  1  1  1  1  1  1  1  1  1  1  1
CENTRE ASSIGNMENTS    1  1  1  1  1  1  1  1  1  1  1  1  1  1  1  1  1  1  1  1
CENTRE ASSIGNMENTS    1  1  1  1  1  1  1  1  1  1  1  1  2  2  2  2  2  2  2  2
CENTRE ASSIGNMENTS    2  2  2  2  2  2  2  2  2  2  2  2  2  2  2  2  2  2  2  3
CENTRE ASSIGNMENTS    3  3  3  3  3  3  3  3  3  3  3  3  3  3  3  3  3  3  3  3
CENTRE ASSIGNMENTS    3  3  3  3  3  3
TYPE ASSIGNMENTS      1  1  1  1  1  1  1  1  1  1  1  1  1  1  1  1  2  2  2  3
TYPE ASSIGNMENTS      3  3  4  4  4  2  3  4  2  3  4  2  3  4  5  6  7  8  9 10
TYPE ASSIGNMENTS      5  6  7  8  9 10  5  6  7  8  9 10 11 12 13 17 14 15 18 19
TYPE ASSIGNMENTS     16 20 11 12 13 17 14 15 18 19 16 20  1  1  1  1  1  1  2  3
TYPE ASSIGNMENTS      4  2  3  4  2  3  4  5  6  7  8  9 10  5  6  7  8  9 10  1
TYPE ASSIGNMENTS      1  1  1  1  1  2  3  4  2  3  4  2  3  4  5  6  7  8  9 10
TYPE ASSIGNMENTS      5  6  7  8  9 10
EXPONENTS  0.1533000D+05 0.2299000D+04 0.5224000D+03 0.1473000D+03 0.4755000D+02
EXPONENTS  0.1676000D+02 0.6207000D+01 0.5224000D+03 0.1473000D+03 0.4755000D+02
EXPONENTS  0.1676000D+02 0.6207000D+01 0.6882000D+00 0.1752000D+01 0.2384000D+00
EXPONENTS  0.7376000D-01 0.3446000D+02 0.7749000D+01 0.2280000D+01 0.3446000D+02
EXPONENTS  0.7749000D+01 0.2280000D+01 0.3446000D+02 0.7749000D+01 0.2280000D+01
EXPONENTS  0.7156000D+00 0.7156000D+00 0.7156000D+00 0.2140000D+00 0.2140000D+00
EXPONENTS  0.2140000D+00 0.5974000D-01 0.5974000D-01 0.5974000D-01 0.2314000D+01
EXPONENTS  0.2314000D+01 0.2314000D+01 0.2314000D+01 0.2314000D+01 0.2314000D+01
EXPONENTS  0.6450000D+00 0.6450000D+00 0.6450000D+00 0.6450000D+00 0.6450000D+00
EXPONENTS  0.6450000D+00 0.2140000D+00 0.2140000D+00 0.2140000D+00 0.2140000D+00
EXPONENTS  0.2140000D+00 0.2140000D+00 0.1428000D+01 0.1428000D+01 0.1428000D+01
EXPONENTS  0.1428000D+01 0.1428000D+01 0.1428000D+01 0.1428000D+01 0.1428000D+01
EXPONENTS  0.1428000D+01 0.1428000D+01 0.5000000D+00 0.5000000D+00 0.5000000D+00
EXPONENTS  0.5000000D+00 0.5000000D+00 0.5000000D+00 0.5000000D+00 0.5000000D+00
EXPONENTS  0.5000000D+00 0.5000000D+00 0.3387000D+02 0.5095000D+01 0.1159000D+01
EXPONENTS  0.3258000D+00 0.1027000D+00 0.2526000D-01 0.1407000D+01 0.1407000D+01
EXPONENTS  0.1407000D+01 0.3880000D+00 0.3880000D+00 0.3880000D+00 0.1020000D+00
EXPONENTS  0.1020000D+00 0.1020000D+00 0.1057000D+01 0.1057000D+01 0.1057000D+01
EXPONENTS  0.1057000D+01 0.1057000D+01 0.1057000D+01 0.2470000D+00 0.2470000D+00
EXPONENTS  0.2470000D+00 0.2470000D+00 0.2470000D+00 0.2470000D+00 0.3387000D+02
EXPONENTS  0.5095000D+01 0.1159000D+01 0.3258000D+00 0.1027000D+00 0.2526000D-01
EXPONENTS  0.1407000D+01 0.1407000D+01 0.1407000D+01 0.3880000D+00 0.3880000D+00
EXPONENTS  0.3880000D+00 0.1020000D+00 0.1020000D+00 0.1020000D+00 0.1057000D+01
EXPONENTS  0.1057000D+01 0.1057000D+01 0.1057000D+01 0.1057000D+01 0.1057000D+01
EXPONENTS  0.2470000D+00 0.2470000D+00 0.2470000D+00 0.2470000D+00 0.2470000D+00
EXPONENTS  0.2470000D+00
MO    1     MO 0.0        OCC NO =    2.0000000  ORB. ENERGY =    0.000000
 -0.72555769D-01 -0.13523202D+00 -0.22930490D+00 -0.34702858D+00 -0.43289081D+00
 -0.37148471D+00 -0.14225891D+00 -0.69269332D-03 -0.74321447D-02 -0.27396285D-01
 -0.80105130D-01 -0.96530576D-01  0.11628131D+00  0.63005752D-01 -0.10932055D-01
 -0.50621485D-02 -0.42746588D+00 -0.41449811D+00 -0.27961798D+00 -0.65926954D-01
 -0.63926969D-01 -0.43124755D-01 -0.12890419D+01 -0.12499371D+01 -0.84320016D+00
 -0.96849783D-01 -0.17469476D-01 -0.27925530D+00 -0.16393925D-01 -0.34160792D-02
 -0.30681356D-01 -0.53388535D-03 -0.60062501D-04 -0.60034095D-03 -0.45496647D-01
  0.82660850D-02  0.37230562D-01 -0.42982506D-02  0.13759076D-01  0.16170864D-02
 -0.68882665D-02 -0.36954073D-02  0.10583674D-01 -0.14883041D-03  0.35709566D-02
  0.29913354D-02  0.77903231D-03 -0.12333073D-02  0.45427499D-03  0.15909396D-03
  0.32543692D-03  0.55267989D-03  0.21240339D-02 -0.76353313D-03 -0.10502383D-02
 -0.51275672D-02  0.19482077D-02  0.18083751D-01 -0.12445345D-02  0.34239170D-03
 -0.14933036D-01  0.25338136D-02  0.66969455D-04  0.12926598D-03 -0.70000363D-03
 -0.17990188D-03  0.27822040D-03  0.62296345D-04 -0.21006490D-04 -0.66601833D-03
  0.20377145D-02 -0.22602693D-03  0.32556109D-01  0.58716283D-01  0.86577126D-01
  0.53756885D-01  0.60667526D-02  0.43806888D-04 -0.80605989D-02  0.30725613D-01
  0.84420845D-02 -0.40212455D-02  0.10667206D-01  0.12163083D-02 -0.51610441D-03
 -0.66839672D-04 -0.89624609D-03 -0.43381596D-02  0.66525816D-02 -0.23144220D-02
 -0.44813062D-02 -0.29335398D-02  0.99301904D-02 -0.32972030D-04  0.64254548D-04
 -0.31282518D-04 -0.33355444D-03 -0.19265497D-03 -0.44371330D-03  0.32210829D-01
  0.58093556D-01  0.85658915D-01  0.54032974D-01  0.53171563D-02  0.46778888D-04
 -0.65896312D-02 -0.34602731D-01  0.10052991D-01 -0.36181467D-02 -0.11293971D-01
  0.84814978D-03 -0.55367108D-03  0.59324144D-04 -0.10018271D-02 -0.49414925D-02
  0.73844289D-02 -0.24429364D-02  0.31829517D-02 -0.25690233D-02 -0.11966307D-01
  0.86391549D-04  0.60187857D-04 -0.14657941D-03  0.34379773D-03 -0.26277645D-03
  0.80191016D-03
MO    2     MO 0.0        OCC NO =    2.0000000  ORB. ENERGY =    0.000000
 -0.19224194D+00 -0.35830737D+00 -0.60756049D+00 -0.91947820D+00 -0.11469766D+01
 -0.98427655D+00 -0.37692563D+00 -0.48027908D-04 -0.51530794D-03 -0.18995221D-02
 -0.55540911D-02 -0.66929499D-02  0.80623674D-02 -0.17641508D-01 -0.12152042D-01
 -0.21394630D-02  0.16107325D+01  0.15618687D+01  0.10536274D+01  0.41464762D-01
  0.40206872D-01  0.27123318D-01 -0.30978393D+00 -0.30038620D+00 -0.20263876D+00
  0.36334516D+00  0.84176668D-02 -0.66298289D-01  0.59115638D-01  0.11665036D-02
 -0.68624988D-02  0.18594164D-02  0.48113045D-04 -0.99331800D-04 -0.72456637D-02
 -0.55538884D-03  0.78010525D-02  0.15116660D-02 -0.69628979D-01 -0.13806296D-02
 -0.74996634D-03 -0.15147070D-02  0.22646733D-02 -0.59853567D-03 -0.17207174D-01
  0.22565430D-03  0.26758187D-03 -0.34866566D-03  0.81083790D-04 -0.11355931D-03
 -0.10386603D-02  0.11632032D-03 -0.97727300D-02  0.55503065D-03 -0.30150559D-03
  0.19612083D-01 -0.18011308D-02  0.21061585D-02  0.97061071D-02  0.13603890D-03
 -0.12016417D-02 -0.42273548D-03 -0.26219163D-03  0.40789273D-04 -0.10181850D-03
  0.31816165D-03 -0.24368360D-04  0.35430179D-04  0.46841325D-03 -0.97999458D-04
  0.27002531D-03  0.55376334D-03  0.76637707D-02  0.13821926D-01  0.20380422D-01
  0.14748964D-01  0.21604143D-02  0.21148778D-04  0.21747877D-01  0.80888973D-02
  0.17830156D-02  0.11801129D-01  0.37033416D-02  0.70611261D-03  0.18425498D-02
  0.10269521D-03 -0.16728562D-03 -0.21364885D-02  0.25547284D-02 -0.41823993D-03
  0.10530578D-01  0.77633903D-02  0.39543609D-02 -0.94131046D-04  0.78034128D-04
  0.16096918D-04  0.11328769D-02  0.67934446D-03 -0.28700044D-04  0.75152542D-02
  0.13554070D-01  0.19985469D-01  0.15355850D-01  0.21312985D-02  0.26896062D-04
  0.24488570D-01 -0.76474885D-02  0.24021730D-02  0.13205472D-01 -0.32196504D-02
  0.89307923D-03  0.19709108D-02  0.80822632D-05 -0.17183787D-03 -0.16818953D-02
  0.20298595D-02 -0.34796421D-03 -0.11741441D-01  0.92034017D-02 -0.43497654D-02
  0.89495953D-05 -0.37745286D-05 -0.51750667D-05 -0.12480315D-02  0.83989743D-03
  0.14837828D-03
MO    3     MO 0.0        OCC NO =    2.0000000  ORB. ENERGY =    0.000000
  0.44677837D+00  0.83272142D+00  0.14119962D+01  0.21369061D+01  0.26656219D+01
  0.22875002D+01  0.87599104D+00  0.74088449D-03  0.79492044D-02  0.29302264D-01
  0.85678102D-01  0.10324628D+00 -0.12437108D+00 -0.23916149D-01 -0.53471306D-01
 -0.55306248D-02  0.50414330D+00  0.48884942D+00  0.32977493D+00  0.74153065D-01
  0.71903529D-01  0.48505696D-01 -0.61194674D+00 -0.59338249D+00 -0.40029232D+00
  0.11346930D+00  0.16073862D-01 -0.13050533D+00  0.18375599D-01  0.16318253D-02
 -0.17220445D-01  0.57099668D-03  0.30566068D-04 -0.31750044D-03 -0.10129057D-01
 -0.67197299D-02  0.16848787D-01  0.66845728D-03 -0.22558869D-01 -0.79274911D-02
  0.11106896D-03 -0.44957675D-02  0.43846985D-02  0.16600311D-03 -0.54163348D-02
 -0.11365193D-02  0.37189192D-03 -0.56392715D-03  0.19203524D-03  0.13425138D-04
 -0.30500345D-03  0.11379852D-03 -0.31215328D-02  0.40876586D-03 -0.98570259D-03
  0.59106223D-02 -0.16319429D-02  0.58555361D-02  0.34539762D-02  0.40564531D-03
 -0.28984283D-02  0.28146879D-03 -0.65906363D-04  0.53855167D-04 -0.23447539D-03
  0.51759008D-04 -0.48612799D-04 -0.26768213D-03  0.14596008D-03 -0.11295270D-03
  0.97110831D-03  0.90701145D-04  0.20792151D-02  0.37499500D-02  0.55292991D-02
  0.13943741D-01  0.43828054D-02  0.88208660D-04  0.69152079D-02  0.16601306D-02
 -0.77727571D-02  0.35436034D-02  0.39245608D-02 -0.18887659D-02  0.56136254D-03
  0.26880659D-03 -0.40985337D-03  0.14625984D-03  0.17518797D-02 -0.18981395D-02
  0.33184741D-02  0.26813415D-02 -0.27176845D-02 -0.92498279D-04  0.15331453D-03
 -0.60816247D-04  0.33405630D-03  0.20969226D-03 -0.15936271D-03  0.52032467D-02
  0.93842697D-02  0.13837100D-01  0.19719625D-01  0.45379859D-02  0.61146229D-04
  0.76762748D-02 -0.30478685D-02 -0.60633693D-02  0.41401251D-02 -0.38030655D-02
 -0.14132048D-02  0.61384348D-03 -0.96033448D-04 -0.47029436D-03  0.15868023D-03
  0.16344127D-02 -0.17930929D-02 -0.36938889D-02  0.28532746D-02  0.19723342D-02
 -0.12293907D-04  0.69092395D-04 -0.56798488D-04 -0.39076151D-03  0.24845080D-03
  0.27046677D-03
MO    4     MO 0.0        OCC NO =    2.0000000  ORB. ENERGY =    0.000000
  0.12777822D+00  0.23815760D+00  0.40382968D+00  0.61115328D+00  0.76236554D+00
  0.65422306D+00  0.25053268D+00 -0.12597601D-02 -0.13516399D-01 -0.49823993D-01
 -0.14568243D+00 -0.17555442D+00  0.21147390D+00  0.14476935D+00  0.83875342D-01
  0.76429795D-02  0.39970883D+00  0.38758311D+00  0.26146128D+00 -0.60241118D+00
 -0.58413621D+00 -0.39405483D+00  0.63927479D+00  0.61988151D+00  0.41816840D+00
  0.90132202D-01 -0.12283008D+00  0.13501671D+00  0.14510093D-01 -0.10659848D-01
  0.19008084D-01  0.45902314D-03 -0.80435765D-04  0.35722823D-03  0.64838684D-03
  0.17202646D-01 -0.17851033D-01 -0.29906705D-02 -0.17765178D-01  0.56923838D-01
 -0.16729601D-02  0.59870454D-02 -0.43140853D-02 -0.96310542D-03 -0.43130591D-02
  0.68026720D-02 -0.35718449D-03  0.51758861D-03 -0.16040412D-03 -0.70109938D-04
 -0.26022571D-03 -0.66188136D-03 -0.25290002D-02 -0.27406531D-02  0.25399157D-02
  0.58342055D-02  0.51676755D-02 -0.28732607D-02  0.17527950D-02  0.30542839D-02
 -0.47464863D-02  0.17983237D-03 -0.75097421D-04 -0.53284975D-04 -0.96897683D-05
  0.10976123D-03  0.34632122D-03 -0.73094975D-04  0.11553103D-03 -0.18646630D-03
  0.10216428D-03  0.17526626D-03  0.18878628D-01  0.34048383D-01  0.50204321D-01
  0.16726483D-01 -0.21845404D-02 -0.15458741D-03  0.41589897D-02  0.13022941D-01
  0.24340547D-01  0.27731037D-02 -0.87675934D-03  0.70123740D-02  0.46276539D-03
 -0.47019141D-03  0.47739412D-03 -0.29777969D-02 -0.67032403D-03  0.36481209D-02
  0.21991084D-02  0.11323006D-02  0.10567045D-01  0.51723211D-04 -0.20970290D-03
  0.15797969D-03  0.29296605D-03  0.15348155D-03  0.35794119D-03 -0.12611910D-01
 -0.22746099D-01 -0.33539110D-01 -0.44469500D-01 -0.94363399D-02 -0.64268031D-04
  0.59686924D-02  0.61504178D-02 -0.13164108D-03  0.31852661D-02  0.81021778D-02
 -0.30982952D-02  0.47539561D-03  0.29085781D-03  0.31430287D-03  0.35489746D-02
 -0.38733291D-02  0.32435452D-03 -0.28213033D-02  0.22935193D-02  0.88071764D-02
  0.86922824D-04 -0.90263167D-04  0.33403425D-05 -0.30484697D-03  0.21963913D-03
  0.39284610D-04
MO    5     MO 0.0        OCC NO =    2.0000000  ORB. ENERGY =    0.000000
  0.33971491D-01  0.63317273D-01  0.10736333D+00  0.16248299D+00  0.20268472D+00
  0.17393365D+00  0.66607346D-01 -0.63681842D-03 -0.68326437D-02 -0.25186411D-01
 -0.73643589D-01 -0.88744106D-01  0.10690168D+00  0.70433458D-01  0.36179760D-01
  0.33180149D-02  0.10610614D+00  0.10288726D+00  0.69407140D-01  0.13509054D+01
  0.13099238D+01  0.88366689D+00  0.24965033D+00  0.24207685D+00  0.16330361D+00
  0.24948439D-01  0.27555251D+00  0.55990493D-01  0.47190636D-02  0.24813522D-01
  0.99237614D-02  0.17247804D-03  0.23587802D-03  0.18919282D-03 -0.16709064D-02
  0.78820401D-02 -0.62111336D-02  0.48395382D-02 -0.22179095D-02 -0.12790766D+00
 -0.39083066D-03  0.20516497D-02 -0.16608190D-02  0.36353147D-03 -0.11262443D-02
 -0.14349961D-01  0.66651026D-04  0.83915482D-04 -0.15056651D-03 -0.69714803D-04
 -0.13241499D-03  0.12894534D-02 -0.50989032D-03  0.60962541D-02  0.11981600D-02
  0.62138626D-03 -0.12655335D-01 -0.11451279D-02  0.90828471D-03 -0.56334269D-02
 -0.24493521D-02 -0.54931707D-03  0.30710655D-05  0.95613326D-04 -0.13398986D-03
 -0.40473676D-04 -0.54421123D-03 -0.26545421D-03  0.31260480D-04  0.25737125D-03
  0.66742379D-03 -0.73087012D-04 -0.32038384D-01 -0.57782544D-01 -0.85200328D-01
 -0.68555154D-01 -0.10794468D-01  0.46848793D-04  0.35840631D-02 -0.16532229D-01
 -0.18989307D-01  0.19022472D-02 -0.92008527D-02 -0.91727430D-02  0.19132096D-03
 -0.71660566D-04 -0.59045317D-04  0.65056929D-02 -0.43157579D-02 -0.21899350D-02
  0.26315058D-02  0.21760958D-02 -0.18857242D-01  0.15224437D-03 -0.34825227D-04
 -0.11741914D-03  0.15330843D-03  0.11234386D-03 -0.59702735D-03  0.37913448D-01
  0.68378464D-01  0.10082401D+00  0.62151180D-01  0.49624305D-02 -0.14701932D-03
  0.17445649D-02 -0.23779195D-01  0.36989340D-01  0.10029545D-02 -0.53708160D-02
  0.12355551D-01  0.16995753D-03  0.47179225D-03  0.32048672D-03 -0.72759235D-02
  0.19311997D-02  0.53447238D-02 -0.86738912D-03  0.65696197D-03 -0.22741009D-01
  0.78148868D-04 -0.28229992D-03  0.20415105D-03 -0.91019813D-04  0.83862854D-04
 -0.25650094D-03
END DATA
 TOTAL ENERGY =    -76.464423275428 THE VIRIAL(-V/T)=   2.00486654
