 76
GAUSSIAN              5 MOL ORBITALS    126 PRIMITIVES        3 NUCLEI   B3LYP
  O    1    (CENTRE  1)   0.00000000  0.00000000  0.00815606  CHARGE =  8.0
  H    2    (CENTRE  2)   0.00000000 -1.44255835 -1.09730160  CHARGE =  1.0
  H    3    (CENTRE  3)   0.09448631  1.34807204 -1.09730160  CHARGE =  1.0
CENTRE ASSIGNMENTS    1  1  1  1  1  1  1  1  1  1  1  1  1  1  1  1  1  1  1  1
CENTRE ASSIGNMENTS    1  1  1  1  1  1  1  1  1  1  1  1  1  1  1  1  1  1  1  1
CENTRE ASSIGNMENTS    1  1  1  1  1  1  1  1  1  1  1  1  1  1  1  1  1  1  1  1
CENTRE ASSIGNMENTS    1  1  1  1  1  1  1  1  1  1  1  1  2  2  2  2  2  2  2  2
CENTRE ASSIGNMENTS    2  2  2  2  2  2  2  2  2  2  2  2  2  2  2  2  2  2  2  3
CENTRE ASSIGNMENTS    3  3  3  3  3  3  3  3  3  3  3  3  3  3  3  3  3  3  3  3
CENTRE ASSIGNMENTS    3  3  3  3  3  3
TYPE ASSIGNMENTS      1  1  1  1  1  1  1  1  1  1  1  1  1  1  1  1  2  2  2  3
TYPE ASSIGNMENTS      3  3  4  4  4  2  3  4  2  3  4  2  3  4  5  6  7  8  9 10
TYPE ASSIGNMENTS      5  6  7  8  9 10  5  6  7  8  9 10 11 12 13 17 14 15 18 19
TYPE ASSIGNMENTS     16 20 11 12 13 17 14 15 18 19 16 20  1  1  1  1  1  1  2  3
TYPE ASSIGNMENTS      4  2  3  4  2  3  4  5  6  7  8  9 10  5  6  7  8  9 10  1
TYPE ASSIGNMENTS      1  1  1  1  1  2  3  4  2  3  4  2  3  4  5  6  7  8  9 10
TYPE ASSIGNMENTS      5  6  7  8  9 10
EXPONENTS  0.1533000D+05 0.2299000D+04 0.5224000D+03 0.1473000D+03 0.4755000D+02
EXPONENTS  0.1676000D+02 0.6207000D+01 0.5224000D+03 0.1473000D+03 0.4755000D+02
EXPONENTS  0.1676000D+02 0.6207000D+01 0.6882000D+00 0.1752000D+01 0.2384000D+00
EXPONENTS  0.7376000D-01 0.3446000D+02 0.7749000D+01 0.2280000D+01 0.3446000D+02
EXPONENTS  0.7749000D+01 0.2280000D+01 0.3446000D+02 0.7749000D+01 0.2280000D+01
EXPONENTS  0.7156000D+00 0.7156000D+00 0.7156000D+00 0.2140000D+00 0.2140000D+00
EXPONENTS  0.2140000D+00 0.5974000D-01 0.5974000D-01 0.5974000D-01 0.2314000D+01
EXPONENTS  0.2314000D+01 0.2314000D+01 0.2314000D+01 0.2314000D+01 0.2314000D+01
EXPONENTS  0.6450000D+00 0.6450000D+00 0.6450000D+00 0.6450000D+00 0.6450000D+00
EXPONENTS  0.6450000D+00 0.2140000D+00 0.2140000D+00 0.2140000D+00 0.2140000D+00
EXPONENTS  0.2140000D+00 0.2140000D+00 0.1428000D+01 0.1428000D+01 0.1428000D+01
EXPONENTS  0.1428000D+01 0.1428000D+01 0.1428000D+01 0.1428000D+01 0.1428000D+01
EXPONENTS  0.1428000D+01 0.1428000D+01 0.5000000D+00 0.5000000D+00 0.5000000D+00
EXPONENTS  0.5000000D+00 0.5000000D+00 0.5000000D+00 0.5000000D+00 0.5000000D+00
EXPONENTS  0.5000000D+00 0.5000000D+00 0.3387000D+02 0.5095000D+01 0.1159000D+01
EXPONENTS  0.3258000D+00 0.1027000D+00 0.2526000D-01 0.1407000D+01 0.1407000D+01
EXPONENTS  0.1407000D+01 0.3880000D+00 0.3880000D+00 0.3880000D+00 0.1020000D+00
EXPONENTS  0.1020000D+00 0.1020000D+00 0.1057000D+01 0.1057000D+01 0.1057000D+01
EXPONENTS  0.1057000D+01 0.1057000D+01 0.1057000D+01 0.2470000D+00 0.2470000D+00
EXPONENTS  0.2470000D+00 0.2470000D+00 0.2470000D+00 0.2470000D+00 0.3387000D+02
EXPONENTS  0.5095000D+01 0.1159000D+01 0.3258000D+00 0.1027000D+00 0.2526000D-01
EXPONENTS  0.1407000D+01 0.1407000D+01 0.1407000D+01 0.3880000D+00 0.3880000D+00
EXPONENTS  0.3880000D+00 0.1020000D+00 0.1020000D+00 0.1020000D+00 0.1057000D+01
EXPONENTS  0.1057000D+01 0.1057000D+01 0.1057000D+01 0.1057000D+01 0.1057000D+01
EXPONENTS  0.2470000D+00 0.2470000D+00 0.2470000D+00 0.2470000D+00 0.2470000D+00
EXPONENTS  0.2470000D+00
MO    1     MO 0.0        OCC NO =    2.0000000  ORB. ENERGY =    0.000000
 -0.12446200D+00 -0.23197669D+00 -0.39334908D+00 -0.59529201D+00 -0.74257986D+00
 -0.63724400D+00 -0.24403060D+00 -0.91851123D-03 -0.98550227D-02 -0.36327469D-01
 -0.10621939D+00 -0.12799953D+00  0.15418900D+00  0.80720275D-01  0.21578900D-01
 -0.45254270D-03  0.31780207D+00  0.30816110D+00  0.20788366D+00  0.10259768D+01
  0.99485235D+00  0.67112152D+00 -0.54911537D+00 -0.53245720D+00 -0.35919248D+00
  0.70591565D-01  0.20674400D+00 -0.11749381D+00  0.10550029D-01  0.17477416D-01
 -0.97602796D-02  0.31365975D-03  0.14537557D-03 -0.18613881D-03 -0.26577070D-01
  0.10256212D-01  0.16320858D-01  0.72260590D-02 -0.18260757D-01 -0.99454584D-01
 -0.42001718D-02 -0.56969615D-03  0.47698679D-02  0.57941852D-03 -0.38621242D-02
 -0.95100905D-02  0.50979597D-03 -0.65112841D-03  0.14133244D-03 -0.16034531D-03
 -0.91680480D-04  0.13377225D-02 -0.22656745D-02  0.43360975D-02  0.28981564D-03
  0.46516407D-02 -0.85056272D-02  0.89218962D-02  0.21453830D-02 -0.45026653D-02
 -0.97913432D-02 -0.17815948D-02 -0.47061630D-04  0.14783402D-03 -0.48193407D-03
  0.19781924D-04 -0.29537823D-03 -0.11360263D-03  0.12140297D-03 -0.14812383D-03
  0.15594048D-02  0.18413580D-03 -0.60594795D-02 -0.10928521D-01 -0.16114097D-01
 -0.22239257D-01 -0.48956771D-02  0.62506288D-04  0.41963423D-02  0.51951640D-02
 -0.98254589D-02  0.21929394D-02 -0.85127900D-03 -0.63642649D-02  0.31955718D-03
 -0.92347887D-04 -0.55283122D-03  0.23337787D-02  0.69871882D-03 -0.30324975D-02
  0.20406917D-02  0.14879613D-02 -0.83692698D-02  0.95128963D-04  0.10003971D-04
 -0.10513293D-03  0.21124077D-03  0.10440644D-03 -0.71631826D-03  0.49034890D-01
  0.88436444D-01  0.13039948D+00  0.81570973D-01  0.72508073D-02 -0.85699857D-04
  0.10226581D-02 -0.39433498D-01  0.35446851D-01  0.12690404D-02 -0.11248805D-01
  0.10610156D-01  0.34292309D-03  0.37439906D-03 -0.29799517D-03 -0.90228724D-02
  0.61292498D-02  0.28936226D-02  0.29038979D-03 -0.45171886D-03 -0.25978671D-01
  0.86998911D-04 -0.17421607D-03  0.87217162D-04 -0.22821579D-03  0.14426064D-03
  0.21731139D-03
MO    2     MO 0.0        OCC NO =    2.0000000  ORB. ENERGY =    0.000000
 -0.28845287D-01 -0.53762873D-01 -0.91162506D-01 -0.13796476D+00 -0.17210016D+00
 -0.14768754D+00 -0.56556483D-01 -0.68851768D-03 -0.73873428D-02 -0.27231137D-01
 -0.79622246D-01 -0.95948678D-01  0.11558035D+00  0.67245620D-01  0.54368935D-02
 -0.26126886D-02 -0.65799056D-01 -0.63802951D-01 -0.43041094D-01 -0.10027460D+01
 -0.97232634D+00 -0.65592561D+00 -0.85470750D+00 -0.82877877D+00 -0.55908926D+00
 -0.14445070D-01 -0.20718551D+00 -0.18736327D+00 -0.23095593D-02 -0.19639679D-01
 -0.20775019D-01 -0.69319252D-04 -0.18943221D-03 -0.40560864D-03 -0.33424577D-01
  0.91472544D-02  0.24277322D-01 -0.12800422D-02  0.10040113D-02  0.92315779D-01
 -0.56198563D-02 -0.15409386D-02  0.71607949D-02 -0.25109825D-03  0.30767130D-04
  0.12492820D-01  0.43303690D-03 -0.78819551D-03  0.35515860D-03 -0.51725390D-04
  0.33379206D-04 -0.56754499D-03  0.18349624D-03 -0.47978322D-02 -0.38479247D-03
 -0.14949888D-02  0.99260697D-02  0.12994484D-01  0.94450005D-03  0.44674269D-02
 -0.11840107D-01 -0.11679377D-02  0.25561794D-04  0.25951539D-04 -0.46706577D-03
 -0.10890518D-03  0.60920870D-03  0.14947847D-03  0.32219794D-04 -0.68706331D-03
  0.12517188D-02  0.16760763D-03  0.49549873D-01  0.89365237D-01  0.13176899D+00
  0.84539118D-01  0.95257959D-02 -0.53051936D-04 -0.85743969D-03  0.37858264D-01
  0.26586247D-01 -0.47248274D-03  0.12863435D-01  0.87330140D-02 -0.66548413D-04
 -0.18983263D-03 -0.45424191D-03 -0.82124333D-02  0.72848372D-02  0.92759607D-03
 -0.41078410D-03 -0.40511200D-03  0.22201727D-01 -0.93434373D-04 -0.10558625D-04
  0.10399300D-03 -0.49512930D-04 -0.43246077D-04  0.12166381D-03 -0.77000769D-03
 -0.13887406D-02 -0.20476972D-02 -0.97417079D-02 -0.23513403D-02  0.89023511D-04
 -0.89689216D-03 -0.10999491D-01 -0.12016911D-01 -0.33838341D-03 -0.24254462D-02
 -0.70992043D-02 -0.52663236D-04 -0.77015581D-04 -0.79828516D-03  0.15460368D-02
  0.29702875D-02 -0.45163243D-02  0.31541202D-03  0.35769560D-03  0.65121182D-02
  0.60813504D-04  0.15095144D-03 -0.21176495D-03  0.26393187D-04  0.13277948D-04
  0.76301513D-03
MO    3     MO 0.0        OCC NO =    2.0000000  ORB. ENERGY =    0.000000
 -0.27755484D+00 -0.51731658D+00 -0.87718296D+00 -0.13275231D+01 -0.16559805D+01
 -0.14210776D+01 -0.54419723D+00 -0.10807260D-02 -0.11595480D-01 -0.42743124D-01
 -0.12497839D+00 -0.15060503D+00  0.18141972D+00  0.78770766D-01  0.88347887D-01
  0.95272931D-02  0.33651784D+00  0.32630910D+00  0.22012619D+00 -0.32357416D+00
 -0.31375810D+00 -0.21165936D+00  0.11375481D+01  0.11030390D+01  0.74410358D+00
  0.76765221D-01 -0.66033374D-01  0.24330687D+00  0.13058526D-01 -0.56559100D-02
  0.31495357D-01  0.43328996D-03 -0.57540232D-04  0.60220416D-03  0.19766595D-01
  0.12349514D-01 -0.32116109D-01 -0.14234470D-02 -0.11352356D-01  0.31711299D-01
  0.87074525D-03  0.75265543D-02 -0.83972995D-02  0.16386692D-03 -0.32832330D-02
  0.33690747D-02 -0.64088220D-03  0.99956884D-03 -0.35868664D-03  0.99091203D-04
 -0.30342688D-03 -0.50023827D-03 -0.18175281D-02 -0.15173512D-02  0.24536646D-02
  0.43539952D-02  0.35235811D-02 -0.10965689D-01  0.10985891D-02  0.10284725D-02
  0.36046954D-02  0.99695718D-03 -0.65953095D-04 -0.98468799D-04  0.34771622D-03
  0.11529121D-03  0.14773914D-03  0.13684111D-03  0.82568071D-04  0.14766726D-03
 -0.11799898D-02  0.39009675D-04 -0.51056236D-03 -0.92082024D-03 -0.13577489D-02
 -0.16918071D-01 -0.62631112D-02 -0.15695547D-03  0.47047924D-02 -0.24643543D-02
  0.16374436D-01  0.25589282D-02 -0.63538949D-02  0.47046416D-02  0.40784049D-03
 -0.44563706D-03  0.80126677D-03 -0.49862097D-03 -0.34583067D-02  0.39569276D-02
  0.23225460D-02  0.17642866D-02  0.48596947D-02  0.10768195D-03 -0.24983231D-03
  0.14215036D-03  0.24230563D-03  0.18156653D-03  0.41024119D-03 -0.17109492D-01
 -0.30857673D-01 -0.45499620D-01 -0.49207790D-01 -0.95222412D-02 -0.96180677D-04
  0.63032541D-02  0.12818108D-01  0.36517470D-02  0.35861740D-02  0.95392664D-02
 -0.17037025D-03  0.45943725D-03  0.21414752D-03  0.79655240D-03  0.24249627D-02
 -0.48356270D-02  0.24106643D-02 -0.36104031D-02  0.24540496D-02  0.48684161D-02
  0.21376698D-04 -0.11679423D-03  0.95417528D-04 -0.30044844D-03  0.19018119D-03
 -0.40074914D-03
MO    4     MO 0.0        OCC NO =    2.0000000  ORB. ENERGY =    0.000000
  0.19740021D+00  0.36792154D+00  0.62386267D+00  0.94414982D+00  0.11777525D+01
  0.10106868D+01  0.38703937D+00  0.15015775D-03  0.16110942D-02  0.59387964D-02
  0.17364692D-01  0.20925299D-01 -0.25206740D-01  0.76604326D-02 -0.69102235D-02
 -0.55678861D-03  0.16414708D+01  0.15916745D+01  0.10737342D+01 -0.15697932D+00
 -0.15221713D+00 -0.10268478D+00  0.26808227D-01  0.25994963D-01  0.17536048D-01
  0.37047397D+00 -0.32775289D-01  0.65676127D-02  0.60496595D-01 -0.37581642D-02
  0.94799741D-03  0.19087306D-02 -0.77709870D-04  0.50548513D-04  0.25331302D-02
 -0.68480929D-03 -0.18483209D-02  0.13056854D-02 -0.69755365D-01  0.11563268D-01
  0.95094696D-03 -0.48359558D-03 -0.46735138D-03 -0.72739253D-03 -0.17302025D-01
  0.14064065D-02  0.56813384D-04 -0.31166461D-04 -0.25646923D-04 -0.14392580D-03
 -0.10782512D-02 -0.93328876D-04 -0.98785404D-02 -0.11526743D-02  0.44699331D-03
  0.20009576D-01  0.31428282D-02 -0.14792586D-02  0.96260449D-02  0.31519465D-03
  0.13827871D-03 -0.56056206D-03 -0.25938136D-03 -0.13603688D-04 -0.16261859D-04
  0.32858979D-03  0.64655938D-04 -0.15657909D-03  0.44955429D-03 -0.23844875D-04
  0.20536467D-03  0.56468726D-03  0.19048585D-02  0.34354907D-02  0.50656291D-02
  0.51670283D-02  0.10649204D-02  0.42594308D-05  0.22760821D-01 -0.28842051D-03
  0.15019184D-02  0.12320646D-01  0.20641460D-03  0.95034923D-03  0.18949590D-02
 -0.41768087D-04  0.61903952D-04 -0.63250196D-04 -0.33256792D-03  0.39581812D-03
  0.11310897D-01  0.82298608D-02  0.33539999D-03 -0.67685133D-05 -0.26469381D-04
  0.33237895D-04  0.11757660D-02  0.70546233D-03  0.58830146D-04 -0.34008478D-02
 -0.61335691D-02 -0.90439441D-02 -0.51890574D-02 -0.30391965D-03  0.12686169D-04
  0.25188520D-01  0.20678689D-02 -0.29762322D-02  0.13538288D-01  0.31439240D-03
 -0.85890532D-03  0.20155660D-02 -0.84954867D-04  0.18793480D-04  0.34073520D-03
 -0.14181673D-03 -0.19891848D-03 -0.12181761D-01  0.96160348D-02  0.27614721D-02
 -0.81749574D-04  0.63587209D-04  0.18162365D-04 -0.12683436D-02  0.86163364D-03
 -0.29561257D-04
MO    5     MO 0.0        OCC NO =    2.0000000  ORB. ENERGY =    0.000000
  0.35635121D+00  0.66418007D+00  0.11262106D+01  0.17044001D+01  0.21261047D+01
  0.18245142D+01  0.69869200D+00 -0.71799738D-03 -0.77036407D-02 -0.28397070D-01
 -0.83031367D-01 -0.10005683D+00  0.12052906D+00  0.11606853D+00  0.55867350D-01
  0.56650052D-02 -0.53788129D+00 -0.52156392D+00 -0.35184394D+00  0.10887590D+00
  0.10557300D+00  0.71218921D-01  0.52555740D+00  0.50961389D+00  0.34378252D+00
 -0.12114261D+00  0.23416819D-01  0.11243295D+00 -0.19651594D-01  0.27929331D-02
  0.15041514D-01 -0.61198980D-03  0.50515032D-04  0.26719804D-03  0.25638207D-02
  0.11423220D-01 -0.13987041D-01  0.40833639D-03  0.23304515D-01 -0.10180019D-01
 -0.45817084D-03  0.40816708D-02 -0.36235000D-02  0.55168588D-03  0.57260541D-02
 -0.14844514D-02 -0.27529540D-03  0.43022067D-03 -0.15492527D-03  0.94919621D-04
  0.32787719D-03 -0.54132652D-04  0.31933682D-02  0.54660458D-03  0.19011223D-02
 -0.60583492D-02 -0.19123631D-02 -0.21827080D-02 -0.35217556D-02  0.27254932D-03
 -0.35206589D-02  0.64569677D-05  0.95330450D-04 -0.47158806D-05 -0.38818064D-04
 -0.12413139D-03 -0.12406969D-04 -0.25304994D-03 -0.16185996D-03  0.26554611D-04
  0.36950413D-03 -0.12834780D-03 -0.40154856D-02 -0.72420937D-02 -0.10678463D-01
 -0.18996448D-01 -0.51469006D-02 -0.68503046D-04 -0.74885206D-02 -0.23945382D-02
  0.50789683D-02 -0.40592847D-02 -0.48013253D-02  0.23565562D-03 -0.61848508D-03
 -0.25621368D-03  0.28212291D-03  0.16127755D-02 -0.28992244D-02  0.12864489D-02
 -0.37325673D-02 -0.26769957D-02 -0.31939647D-02  0.88827099D-04 -0.12021167D-03
  0.31384573D-04 -0.38621050D-03 -0.21652600D-03  0.21895677D-04  0.64522892D-03
  0.11636969D-02  0.17158704D-02 -0.12237062D-01 -0.43335384D-02 -0.88287822D-04
 -0.81886810D-02  0.13756140D-02  0.85086993D-02 -0.41332118D-02  0.47435456D-02
  0.11505274D-02 -0.63640339D-03  0.34603082D-03  0.29418457D-03  0.13103934D-02
 -0.30209797D-02  0.17105864D-02  0.34072996D-02 -0.29521412D-02  0.18501002D-02
  0.96997094D-04 -0.15615576D-03  0.59158665D-04  0.38858943D-03 -0.27327776D-03
 -0.74730383D-04
END DATA
 TOTAL ENERGY =    -76.464538425814 THE VIRIAL(-V/T)=   2.00487498
