 82
GAUSSIAN              5 MOL ORBITALS    126 PRIMITIVES        3 NUCLEI   B3LYP
  O    1    (CENTRE  1)   0.00000000  0.00000000  0.10264236  CHARGE =  8.0
  H    2    (CENTRE  2)   0.00000000 -1.44255835 -1.09730160  CHARGE =  1.0
  H    3    (CENTRE  3)   0.00000000  1.44255835 -1.00281530  CHARGE =  1.0
CENTRE ASSIGNMENTS    1  1  1  1  1  1  1  1  1  1  1  1  1  1  1  1  1  1  1  1
CENTRE ASSIGNMENTS    1  1  1  1  1  1  1  1  1  1  1  1  1  1  1  1  1  1  1  1
CENTRE ASSIGNMENTS    1  1  1  1  1  1  1  1  1  1  1  1  1  1  1  1  1  1  1  1
CENTRE ASSIGNMENTS    1  1  1  1  1  1  1  1  1  1  1  1  2  2  2  2  2  2  2  2
CENTRE ASSIGNMENTS    2  2  2  2  2  2  2  2  2  2  2  2  2  2  2  2  2  2  2  3
CENTRE ASSIGNMENTS    3  3  3  3  3  3  3  3  3  3  3  3  3  3  3  3  3  3  3  3
CENTRE ASSIGNMENTS    3  3  3  3  3  3
TYPE ASSIGNMENTS      1  1  1  1  1  1  1  1  1  1  1  1  1  1  1  1  2  2  2  3
TYPE ASSIGNMENTS      3  3  4  4  4  2  3  4  2  3  4  2  3  4  5  6  7  8  9 10
TYPE ASSIGNMENTS      5  6  7  8  9 10  5  6  7  8  9 10 11 12 13 17 14 15 18 19
TYPE ASSIGNMENTS     16 20 11 12 13 17 14 15 18 19 16 20  1  1  1  1  1  1  2  3
TYPE ASSIGNMENTS      4  2  3  4  2  3  4  5  6  7  8  9 10  5  6  7  8  9 10  1
TYPE ASSIGNMENTS      1  1  1  1  1  2  3  4  2  3  4  2  3  4  5  6  7  8  9 10
TYPE ASSIGNMENTS      5  6  7  8  9 10
EXPONENTS  0.1533000D+05 0.2299000D+04 0.5224000D+03 0.1473000D+03 0.4755000D+02
EXPONENTS  0.1676000D+02 0.6207000D+01 0.5224000D+03 0.1473000D+03 0.4755000D+02
EXPONENTS  0.1676000D+02 0.6207000D+01 0.6882000D+00 0.1752000D+01 0.2384000D+00
EXPONENTS  0.7376000D-01 0.3446000D+02 0.7749000D+01 0.2280000D+01 0.3446000D+02
EXPONENTS  0.7749000D+01 0.2280000D+01 0.3446000D+02 0.7749000D+01 0.2280000D+01
EXPONENTS  0.7156000D+00 0.7156000D+00 0.7156000D+00 0.2140000D+00 0.2140000D+00
EXPONENTS  0.2140000D+00 0.5974000D-01 0.5974000D-01 0.5974000D-01 0.2314000D+01
EXPONENTS  0.2314000D+01 0.2314000D+01 0.2314000D+01 0.2314000D+01 0.2314000D+01
EXPONENTS  0.6450000D+00 0.6450000D+00 0.6450000D+00 0.6450000D+00 0.6450000D+00
EXPONENTS  0.6450000D+00 0.2140000D+00 0.2140000D+00 0.2140000D+00 0.2140000D+00
EXPONENTS  0.2140000D+00 0.2140000D+00 0.1428000D+01 0.1428000D+01 0.1428000D+01
EXPONENTS  0.1428000D+01 0.1428000D+01 0.1428000D+01 0.1428000D+01 0.1428000D+01
EXPONENTS  0.1428000D+01 0.1428000D+01 0.5000000D+00 0.5000000D+00 0.5000000D+00
EXPONENTS  0.5000000D+00 0.5000000D+00 0.5000000D+00 0.5000000D+00 0.5000000D+00
EXPONENTS  0.5000000D+00 0.5000000D+00 0.3387000D+02 0.5095000D+01 0.1159000D+01
EXPONENTS  0.3258000D+00 0.1027000D+00 0.2526000D-01 0.1407000D+01 0.1407000D+01
EXPONENTS  0.1407000D+01 0.3880000D+00 0.3880000D+00 0.3880000D+00 0.1020000D+00
EXPONENTS  0.1020000D+00 0.1020000D+00 0.1057000D+01 0.1057000D+01 0.1057000D+01
EXPONENTS  0.1057000D+01 0.1057000D+01 0.1057000D+01 0.2470000D+00 0.2470000D+00
EXPONENTS  0.2470000D+00 0.2470000D+00 0.2470000D+00 0.2470000D+00 0.3387000D+02
EXPONENTS  0.5095000D+01 0.1159000D+01 0.3258000D+00 0.1027000D+00 0.2526000D-01
EXPONENTS  0.1407000D+01 0.1407000D+01 0.1407000D+01 0.3880000D+00 0.3880000D+00
EXPONENTS  0.3880000D+00 0.1020000D+00 0.1020000D+00 0.1020000D+00 0.1057000D+01
EXPONENTS  0.1057000D+01 0.1057000D+01 0.1057000D+01 0.1057000D+01 0.1057000D+01
EXPONENTS  0.2470000D+00 0.2470000D+00 0.2470000D+00 0.2470000D+00 0.2470000D+00
EXPONENTS  0.2470000D+00
MO    1     MO 0.0        OCC NO =    2.0000000  ORB. ENERGY =    0.000000
  0.45581276D+00  0.84956004D+00  0.14405484D+01  0.21801169D+01  0.27195240D+01
  0.23337562D+01  0.89370462D+00  0.24206224D-03  0.25971690D-02  0.95736541D-02
  0.27992803D-01  0.33732689D-01 -0.40634598D-01  0.29010396D-01 -0.54557001D-02
  0.10175819D-03 -0.76789319D+00 -0.74459809D+00 -0.50230147D+00 -0.65342311D-01
 -0.63360062D-01 -0.42742323D-01  0.10322953D+00  0.10009792D+00  0.67525466D-01
 -0.17345263D+00 -0.12814591D-01  0.24036097D-01 -0.28697417D-01 -0.10041131D-02
  0.23809513D-02 -0.92725626D-03 -0.60822688D-05  0.42684401D-04  0.35403962D-02
 -0.72426587D-03 -0.28161303D-02 -0.17308904D-02  0.31097599D-01  0.56585830D-02
  0.12923131D-02 -0.34461426D-03 -0.94769884D-03 -0.11295765D-03  0.82507421D-02
  0.32500484D-03 -0.10402041D-04  0.57818746D-04 -0.47416705D-04  0.32823470D-04
  0.57334068D-03 -0.10553381D-03  0.45678179D-02 -0.27698749D-03  0.26311502D-03
 -0.92000449D-02  0.29718240D-03 -0.10359830D-02 -0.45034089D-02  0.53378008D-03
  0.24663796D-03  0.10819241D-04  0.19882077D-03 -0.20388359D-04 -0.30300619D-04
 -0.30626056D-03  0.29863615D-04 -0.31437293D-03 -0.29020176D-03  0.31301461D-04
  0.40527479D-03 -0.18571895D-03 -0.26045915D-02 -0.46974881D-02 -0.69264434D-02
 -0.25641471D-02  0.18227112D-04  0.10727035D-05 -0.99397594D-02 -0.32354750D-02
 -0.88945016D-03 -0.54202747D-02 -0.90888780D-03  0.10718448D-05 -0.85071960D-03
 -0.15975221D-05  0.63331348D-04  0.81883812D-03 -0.95933106D-03  0.14049294D-03
 -0.48803044D-02 -0.38861864D-02 -0.22843355D-02  0.40642333D-05 -0.15629299D-04
  0.11565066D-04 -0.49440767D-03 -0.32027974D-03  0.34580769D-04 -0.59546010D-02
 -0.10739368D-01 -0.15835192D-01 -0.94677106D-02 -0.93478667D-03  0.33563872D-05
 -0.10686754D-01  0.58374789D-02 -0.36397011D-02 -0.58092711D-02  0.20726094D-02
 -0.12467381D-02 -0.89459155D-03  0.18474687D-04  0.23785795D-04  0.18017188D-02
 -0.17202805D-02 -0.81438320D-04  0.53402383D-02 -0.39339546D-02  0.50684552D-02
  0.16670752D-04 -0.17491023D-04  0.82027112D-06  0.55272122D-03 -0.34319930D-03
  0.28886433D-04
MO    2     MO 0.0        OCC NO =    2.0000000  ORB. ENERGY =    0.000000
 -0.56086701D-01 -0.10453639D+00 -0.17725614D+00 -0.26825831D+00 -0.33463110D+00
 -0.28716327D+00 -0.10996828D+00 -0.69011974D-03 -0.74045319D-02 -0.27294499D-01
 -0.79807513D-01 -0.96171934D-01  0.11584929D+00  0.63880052D-01 -0.61347767D-02
 -0.50296999D-02 -0.58529367D+00 -0.56753797D+00 -0.38285776D+00 -0.11804083D+00
 -0.11445990D+00 -0.77213972D-01 -0.12261179D+01 -0.11889219D+01 -0.80203971D+00
 -0.13220683D+00 -0.26753287D-01 -0.26864031D+00 -0.21873375D-01 -0.35910613D-02
 -0.30985831D-01 -0.70676133D-03 -0.36209912D-04 -0.59002487D-03 -0.42487883D-01
  0.82713746D-02  0.34216508D-01 -0.13192970D-02  0.23702811D-01  0.10268471D-01
 -0.72542413D-02 -0.29925186D-02  0.10246760D-01 -0.86097128D-04  0.62887744D-02
  0.27114777D-02  0.52649887D-03 -0.10354874D-02  0.50898854D-03  0.25018283D-04
  0.43700436D-03  0.23011467D-03  0.34816234D-02 -0.48466227D-03 -0.66957248D-03
 -0.70123398D-02  0.18227647D-02  0.17365354D-01 -0.34325304D-02 -0.36877786D-03
 -0.15356637D-01  0.82465028D-05  0.15154261D-03  0.30817750D-04 -0.63787934D-03
 -0.23343398D-03  0.24732385D-03  0.47084629D-03 -0.22119385D-03 -0.33977710D-03
  0.14427917D-02 -0.14155630D-03  0.33874198D-01  0.61093511D-01  0.90082346D-01
  0.56198452D-01  0.72781491D-02  0.46167129D-04 -0.75761555D-02  0.28868654D-01
  0.10830881D-01 -0.41313720D-02  0.10951266D-01  0.27847073D-02 -0.64842454D-03
  0.10398738D-03 -0.72071574D-03 -0.45149457D-02  0.57938969D-02 -0.12789511D-02
 -0.37198028D-02 -0.29620790D-02  0.11276387D-01 -0.17375850D-03  0.19804503D-03
 -0.24286523D-04 -0.37684105D-03 -0.24411950D-03 -0.42030919D-04  0.27438410D-01
  0.49486303D-01  0.72967525D-01  0.45047121D-01  0.52655308D-02  0.66738605D-04
 -0.81455198D-02 -0.28622001D-01  0.55791304D-02 -0.44278678D-02 -0.10293152D-01
  0.16184202D-03 -0.68186405D-03 -0.85542101D-04 -0.82693722D-03 -0.37292210D-02
  0.63906573D-02 -0.26614363D-02  0.40703677D-02 -0.29984883D-02 -0.84130386D-02
 -0.58659741D-04  0.18252465D-03 -0.12386491D-03  0.42128805D-03 -0.26158896D-03
  0.42861004D-03
MO    3     MO 0.0        OCC NO =    2.0000000  ORB. ENERGY =    0.000000
 -0.14249371D+00 -0.26558484D+00 -0.45033642D+00 -0.68153628D+00 -0.85016279D+00
 -0.72956616D+00 -0.27938508D+00  0.15696390D-03  0.16841197D-02  0.62079822D-02
  0.18151776D-01  0.21873772D-01 -0.26349277D-01 -0.32541316D-01 -0.47073175D-02
  0.35661900D-03 -0.11688888D+01 -0.11334289D+01 -0.76460446D+00  0.98355707D+00
  0.95371951D+00  0.64337355D+00  0.19806106D+00  0.19205260D+00  0.12955755D+00
 -0.26402999D+00  0.20616666D+00  0.44418816D-01 -0.43683274D-01  0.20881232D-01
  0.55671611D-02 -0.14114716D-02  0.22457413D-03  0.10284210D-03  0.73597889D-02
  0.17559293D-05 -0.73615448D-02 -0.26347653D-02  0.47336837D-01 -0.92052668D-01
  0.15187933D-02  0.35436866D-03 -0.18731620D-02 -0.17194440D-03  0.12559299D-01
 -0.13471849D-01  0.56610674D-05  0.88082168D-04 -0.93743236D-04  0.49963962D-04
  0.87274051D-03  0.31506053D-03  0.69531430D-02  0.43423803D-02 -0.24116599D-03
 -0.14004329D-01 -0.10600784D-01 -0.36001979D-02 -0.68550995D-02 -0.24263564D-02
  0.43236958D-02  0.16469074D-04  0.30264543D-03  0.63062546D-04  0.10594459D-03
 -0.46619052D-03 -0.73246040D-03 -0.11552672D-03 -0.44174578D-03  0.54327276D-03
 -0.20230705D-03 -0.28270181D-03 -0.29930210D-01 -0.53980366D-01 -0.79594018D-01
 -0.52408421D-01 -0.65279652D-02  0.82971889D-04 -0.15130325D-01 -0.16162455D-01
 -0.19310823D-01 -0.82507547D-02 -0.57550046D-02 -0.75265533D-02 -0.12949673D-02
  0.19839458D-03 -0.14182631D-04  0.47615322D-02 -0.21438267D-02 -0.26177055D-02
 -0.74288106D-02 -0.59155619D-02 -0.13764319D-01  0.12553903D-03  0.45361750D-04
 -0.17090078D-03 -0.75258850D-03 -0.48753055D-03 -0.49011735D-03  0.19892179D-01
  0.35876365D-01  0.52899679D-01  0.38693136D-01  0.48582828D-02 -0.89318946D-04
 -0.16267401D-01 -0.84428274D-02  0.17084394D-01 -0.88428858D-02 -0.34394518D-02
  0.73747332D-02 -0.13617493D-02  0.22522501D-03  0.25728142D-03 -0.42855430D-02
  0.14227736D-02  0.28627694D-02  0.81289230D-02 -0.59882748D-02 -0.13097928D-01
 -0.41327787D-04 -0.13306881D-03  0.17439660D-03  0.84135351D-03 -0.52241877D-03
 -0.44429343D-03
MO    4     MO 0.0        OCC NO =    2.0000000  ORB. ENERGY =    0.000000
  0.16713458D+00  0.31151138D+00  0.52821132D+00  0.79939167D+00  0.99717810D+00
  0.85572716D+00  0.32769804D+00  0.40182360D-03  0.43113035D-02  0.15892276D-01
  0.46468084D-01  0.55996301D-01 -0.67453479D-01 -0.21577090D-01 -0.42691054D-01
 -0.52833335D-02  0.91951822D+00  0.89162337D+00  0.60148386D+00  0.10059704D+01
  0.97545294D+00  0.65803479D+00 -0.65870618D+00 -0.63872342D+00 -0.43087904D+00
  0.20770187D+00  0.21039147D+00 -0.14047390D+00  0.34363890D-01  0.21036913D-01
 -0.17374928D-01  0.11103485D-02  0.23173698D-03 -0.33329728D-03 -0.15095133D-01
 -0.73949499D-03  0.15834628D-01  0.20726649D-02 -0.37238003D-01 -0.94915690D-01
 -0.97440916D-03 -0.38404255D-02  0.48148346D-02  0.13526181D-03 -0.98798997D-02
 -0.13770590D-01  0.43026073D-03 -0.66976253D-03  0.23950180D-03 -0.39304657D-04
 -0.68655018D-03  0.41487780D-03 -0.54697605D-02  0.44183102D-02 -0.12994335D-02
  0.11016648D-01 -0.10809150D-01  0.67071812D-02  0.53926335D-02 -0.24457806D-02
 -0.28088808D-02 -0.12955564D-04 -0.23807910D-03  0.76325812D-04 -0.32222153D-03
  0.36673350D-03 -0.68411818D-03 -0.10267910D-03  0.34750380D-03  0.45514074D-03
  0.10693437D-02  0.22239024D-03 -0.16346025D-01 -0.29480729D-01 -0.43469317D-01
 -0.22893807D-01 -0.80198592D-03  0.16508790D-03  0.11902423D-01 -0.45980750D-02
 -0.20289435D-01  0.64905399D-02  0.92525085D-03 -0.75099667D-02  0.10186992D-02
  0.45189205D-03 -0.51463582D-03  0.32924873D-02  0.10646117D-02 -0.43570990D-02
  0.58439492D-02  0.46535368D-02 -0.11063712D-01 -0.50994843D-05  0.23362527D-03
 -0.22852579D-03  0.59203138D-03  0.38352085D-03 -0.55741018D-03  0.33840419D-01
  0.61032589D-01  0.89992517D-01  0.69106934D-01  0.10212350D-01 -0.17947126D-04
  0.12796916D-01 -0.21047413D-01  0.15723737D-01  0.69563458D-02 -0.10101642D-01
  0.68587068D-02  0.10712339D-02  0.72973977D-04 -0.31354651D-03 -0.57665990D-02
  0.48743112D-02  0.89228778D-03 -0.63946998D-02  0.47107371D-02 -0.15465575D-01
 -0.10934737D-03  0.10498756D-04  0.98848614D-04 -0.66185927D-03  0.41096603D-03
 -0.20578456D-03
MO    5     MO 0.0        OCC NO =    2.0000000  ORB. ENERGY =    0.000000
 -0.11558233D-01 -0.21542646D-01 -0.36528584D-01 -0.55282128D-01 -0.68960097D-01
 -0.59178023D-01 -0.22662039D-01 -0.15290646D-02 -0.16405860D-01 -0.60475088D-01
 -0.17682561D+00 -0.21308346D+00  0.25668161D+00  0.15693019D+00  0.98288804D-01
  0.91173359D-02  0.26425014D+00  0.25623375D+00  0.17285377D+00  0.39885016D+00
  0.38675049D+00  0.26089959D+00  0.75244577D+00  0.72961929D+00  0.49219686D+00
  0.59689136D-01  0.83361679D-01  0.16012346D+00  0.98754572D-02  0.82918989D-02
  0.23373540D-01  0.31909072D-03  0.89127086D-04  0.43187541D-03  0.12631289D-02
  0.18796796D-01 -0.20059925D-01  0.59564016D-03 -0.10701416D-01 -0.37719439D-01
 -0.22032746D-02  0.73015274D-02 -0.50982529D-02  0.38871390D-04 -0.28392747D-02
 -0.47235763D-02 -0.33622168D-03  0.59470742D-03 -0.25848573D-03 -0.11295329D-04
 -0.19730004D-03  0.15299512D-03 -0.15718938D-02  0.19552546D-02  0.27364384D-02
  0.31659522D-02 -0.43779380D-02 -0.38119140D-02  0.15497291D-02 -0.14878258D-02
 -0.43974013D-02 -0.37231558D-05 -0.68418911D-04  0.22370775D-04  0.88974941D-04
  0.10539147D-03 -0.22484935D-03 -0.24386258D-04  0.99865262D-04  0.15773703D-03
 -0.24253856D-03  0.63910265D-04 -0.80541629D-02 -0.14526015D-01 -0.21418600D-01
 -0.35136163D-01 -0.99117208D-02 -0.10206758D-03  0.34205054D-02 -0.95348113D-03
  0.65867301D-02  0.18652442D-02 -0.70613676D-02 -0.98943321D-03  0.29275266D-03
 -0.46919690D-03  0.31576312D-03  0.19845232D-02 -0.31423160D-02  0.11577928D-02
  0.16794277D-02  0.13373283D-02 -0.40484408D-02  0.20000511D-03 -0.21906133D-03
  0.19056229D-04  0.17013733D-03  0.11021580D-03 -0.22096467D-03  0.13706308D-01
  0.24719890D-01  0.36449464D-01  0.29460391D-02 -0.50996528D-02 -0.17506964D-03
  0.36775637D-02 -0.10539113D-01  0.22637726D-01  0.19991071D-02  0.31611464D-02
  0.54906327D-02  0.30785003D-03  0.60655189D-03  0.46663710D-03 -0.19148224D-02
 -0.15119550D-02  0.34267774D-02 -0.18377018D-02  0.13537665D-02 -0.80272736D-02
  0.11620617D-03 -0.27170149D-03  0.15549532D-03 -0.19020439D-03  0.11810297D-03
 -0.21594130D-03
END DATA
 TOTAL ENERGY =    -76.465283522038 THE VIRIAL(-V/T)=   2.00662527
