 82
GAUSSIAN              5 MOL ORBITALS    126 PRIMITIVES        3 NUCLEI   B3LYP
  O    1    (CENTRE  1)   0.00000000  0.00000000 -0.08633025  CHARGE =  8.0
  H    2    (CENTRE  2)   0.00000000 -1.44255835 -1.09730160  CHARGE =  1.0
  H    3    (CENTRE  3)   0.00000000  1.44255835 -1.19178791  CHARGE =  1.0
CENTRE ASSIGNMENTS    1  1  1  1  1  1  1  1  1  1  1  1  1  1  1  1  1  1  1  1
CENTRE ASSIGNMENTS    1  1  1  1  1  1  1  1  1  1  1  1  1  1  1  1  1  1  1  1
CENTRE ASSIGNMENTS    1  1  1  1  1  1  1  1  1  1  1  1  1  1  1  1  1  1  1  1
CENTRE ASSIGNMENTS    1  1  1  1  1  1  1  1  1  1  1  1  2  2  2  2  2  2  2  2
CENTRE ASSIGNMENTS    2  2  2  2  2  2  2  2  2  2  2  2  2  2  2  2  2  2  2  3
CENTRE ASSIGNMENTS    3  3  3  3  3  3  3  3  3  3  3  3  3  3  3  3  3  3  3  3
CENTRE ASSIGNMENTS    3  3  3  3  3  3
TYPE ASSIGNMENTS      1  1  1  1  1  1  1  1  1  1  1  1  1  1  1  1  2  2  2  3
TYPE ASSIGNMENTS      3  3  4  4  4  2  3  4  2  3  4  2  3  4  5  6  7  8  9 10
TYPE ASSIGNMENTS      5  6  7  8  9 10  5  6  7  8  9 10 11 12 13 17 14 15 18 19
TYPE ASSIGNMENTS     16 20 11 12 13 17 14 15 18 19 16 20  1  1  1  1  1  1  2  3
TYPE ASSIGNMENTS      4  2  3  4  2  3  4  5  6  7  8  9 10  5  6  7  8  9 10  1
TYPE ASSIGNMENTS      1  1  1  1  1  2  3  4  2  3  4  2  3  4  5  6  7  8  9 10
TYPE ASSIGNMENTS      5  6  7  8  9 10
EXPONENTS  0.1533000D+05 0.2299000D+04 0.5224000D+03 0.1473000D+03 0.4755000D+02
EXPONENTS  0.1676000D+02 0.6207000D+01 0.5224000D+03 0.1473000D+03 0.4755000D+02
EXPONENTS  0.1676000D+02 0.6207000D+01 0.6882000D+00 0.1752000D+01 0.2384000D+00
EXPONENTS  0.7376000D-01 0.3446000D+02 0.7749000D+01 0.2280000D+01 0.3446000D+02
EXPONENTS  0.7749000D+01 0.2280000D+01 0.3446000D+02 0.7749000D+01 0.2280000D+01
EXPONENTS  0.7156000D+00 0.7156000D+00 0.7156000D+00 0.2140000D+00 0.2140000D+00
EXPONENTS  0.2140000D+00 0.5974000D-01 0.5974000D-01 0.5974000D-01 0.2314000D+01
EXPONENTS  0.2314000D+01 0.2314000D+01 0.2314000D+01 0.2314000D+01 0.2314000D+01
EXPONENTS  0.6450000D+00 0.6450000D+00 0.6450000D+00 0.6450000D+00 0.6450000D+00
EXPONENTS  0.6450000D+00 0.2140000D+00 0.2140000D+00 0.2140000D+00 0.2140000D+00
EXPONENTS  0.2140000D+00 0.2140000D+00 0.1428000D+01 0.1428000D+01 0.1428000D+01
EXPONENTS  0.1428000D+01 0.1428000D+01 0.1428000D+01 0.1428000D+01 0.1428000D+01
EXPONENTS  0.1428000D+01 0.1428000D+01 0.5000000D+00 0.5000000D+00 0.5000000D+00
EXPONENTS  0.5000000D+00 0.5000000D+00 0.5000000D+00 0.5000000D+00 0.5000000D+00
EXPONENTS  0.5000000D+00 0.5000000D+00 0.3387000D+02 0.5095000D+01 0.1159000D+01
EXPONENTS  0.3258000D+00 0.1027000D+00 0.2526000D-01 0.1407000D+01 0.1407000D+01
EXPONENTS  0.1407000D+01 0.3880000D+00 0.3880000D+00 0.3880000D+00 0.1020000D+00
EXPONENTS  0.1020000D+00 0.1020000D+00 0.1057000D+01 0.1057000D+01 0.1057000D+01
EXPONENTS  0.1057000D+01 0.1057000D+01 0.1057000D+01 0.2470000D+00 0.2470000D+00
EXPONENTS  0.2470000D+00 0.2470000D+00 0.2470000D+00 0.2470000D+00 0.3387000D+02
EXPONENTS  0.5095000D+01 0.1159000D+01 0.3258000D+00 0.1027000D+00 0.2526000D-01
EXPONENTS  0.1407000D+01 0.1407000D+01 0.1407000D+01 0.3880000D+00 0.3880000D+00
EXPONENTS  0.3880000D+00 0.1020000D+00 0.1020000D+00 0.1020000D+00 0.1057000D+01
EXPONENTS  0.1057000D+01 0.1057000D+01 0.1057000D+01 0.1057000D+01 0.1057000D+01
EXPONENTS  0.2470000D+00 0.2470000D+00 0.2470000D+00 0.2470000D+00 0.2470000D+00
EXPONENTS  0.2470000D+00
MO    1     MO 0.0        OCC NO =    2.0000000  ORB. ENERGY =    0.000000
 -0.49033528D-02 -0.91390433D-02 -0.15496532D-01 -0.23452354D-01 -0.29254963D-01
 -0.25105110D-01 -0.96139235D-02  0.15676856D-03  0.16820238D-02  0.62002565D-02
  0.18129186D-01  0.21846551D-01 -0.26316486D-01 -0.16687159D-01  0.37156241D-01
  0.71772720D-02  0.91575475D+00  0.88797407D+00  0.59902206D+00 -0.10120521D-01
 -0.98135007D-02 -0.66201296D-02  0.13372075D+01  0.12966415D+01  0.87470669D+00
  0.20670960D+00 -0.36417415D-02  0.29008340D+00  0.33763514D-01 -0.10025151D-02
  0.34505844D-01  0.10725480D-02 -0.52941242D-05  0.69765068D-03  0.39053580D-01
 -0.43044766D-02 -0.34749103D-01 -0.21527112D-02 -0.37755406D-01  0.50035886D-03
  0.51929736D-02  0.50526368D-02 -0.10245610D-01 -0.65537866D-04 -0.94313468D-02
  0.83943477D-03 -0.78201931D-03  0.13223367D-02 -0.54031735D-03  0.43416968D-04
 -0.59682147D-03  0.19766430D-03 -0.55126714D-02 -0.50937953D-04  0.66996616D-03
  0.12082292D-01  0.49689932D-03 -0.16199543D-01  0.44557222D-02 -0.34408546D-03
  0.14189645D-01 -0.17140048D-03 -0.14724111D-03  0.36115323D-04  0.58505678D-03
  0.17950791D-03  0.13395016D-03 -0.19916080D-04  0.26221543D-03 -0.24229613D-03
 -0.17352542D-02 -0.21980541D-03 -0.25555267D-01 -0.46089977D-01 -0.67959644D-01
 -0.49371105D-01 -0.68136348D-02 -0.84588927D-04  0.13599761D-01 -0.27034356D-01
 -0.70237993D-03  0.73977048D-02 -0.11095856D-01  0.11428932D-02  0.11206940D-02
 -0.79660277D-04  0.10277872D-02  0.36087742D-02 -0.72548668D-02  0.36460927D-02
  0.68852612D-02  0.47004202D-02 -0.68661739D-02  0.17597468D-04 -0.16429452D-03
  0.14669705D-03  0.74020681D-03  0.43523307D-03  0.70893849D-03 -0.27110473D-01
 -0.48894855D-01 -0.72095435D-01 -0.51378951D-01 -0.76323440D-02 -0.84583991D-04
  0.12676049D-01  0.25570626D-01 -0.28232488D-02  0.69125587D-02  0.11128578D-01
 -0.25618034D-03  0.10693066D-02  0.17572192D-03  0.93465459D-03  0.36845849D-02
 -0.65429579D-02  0.28583730D-02 -0.62689992D-02  0.46748930D-02  0.79589081D-02
  0.11300040D-03 -0.22130108D-03  0.10830068D-03 -0.66822085D-03  0.41753259D-03
 -0.41793545D-03
MO    2     MO 0.0        OCC NO =    2.0000000  ORB. ENERGY =    0.000000
  0.59278657D-02  0.11048567D-01  0.18734398D-01  0.28352519D-01  0.35367533D-01
  0.30350605D-01  0.11622669D-01  0.80922568D-04  0.86824605D-03  0.32005184D-02
  0.93581282D-02  0.11276999D-01 -0.13584341D-01 -0.77590856D-02 -0.31088423D-01
 -0.49717244D-02  0.15188111D+01  0.14727358D+01  0.99349889D+00  0.17812959D+00
  0.17272578D+00  0.11651979D+00 -0.82997374D+00 -0.80479534D+00 -0.54291018D+00
  0.34283505D+00  0.37133661D-01 -0.17994642D+00  0.55997961D-01  0.35582416D-02
 -0.22012840D-01  0.17788580D-02  0.28380905D-04 -0.44301403D-03 -0.21694833D-01
 -0.33522144D-03  0.22030055D-01 -0.35703463D-02 -0.62618651D-01 -0.16245591D-01
 -0.27077066D-02 -0.36063027D-02  0.63140093D-02 -0.10869683D-03 -0.15642216D-01
 -0.22094710D-02  0.45727513D-03 -0.78478199D-03  0.32750686D-03  0.72008549D-04
 -0.98984913D-03  0.81591404D-04 -0.91429570D-02  0.88726889D-03 -0.62013698D-03
  0.20038901D-01 -0.19262199D-02  0.94703197D-02  0.73899699D-02 -0.73558676D-03
 -0.76099088D-02 -0.28427364D-03 -0.24420450D-03 -0.71378928D-05 -0.31146529D-03
  0.29772010D-03 -0.14311040D-03  0.34703709D-04  0.43489340D-03  0.16452408D-03
  0.89969217D-03 -0.36455491D-03  0.90812954D-02  0.16378490D-01  0.24150074D-01
  0.20346998D-01  0.35765054D-02  0.73733060D-04  0.22555676D-01  0.11286655D-01
 -0.49415724D-02  0.12269350D-01  0.56622635D-02 -0.23358142D-02  0.18587100D-02
  0.12813949D-03 -0.64968946D-03 -0.10542987D-02  0.36697980D-02 -0.26154993D-02
  0.11419445D-01  0.77958101D-02  0.64229080D-03 -0.32263362D-04  0.14490572D-03
 -0.11264236D-03  0.12276587D-02  0.72184916D-03 -0.45683119D-03  0.19144446D-01
  0.34527796D-01  0.50911215D-01  0.38567220D-01  0.60627254D-02  0.49750407D-04
  0.21023667D-01 -0.16310332D-01  0.31662060D-02  0.11464719D-01 -0.77508429D-02
  0.11677819D-02  0.17734821D-02 -0.13949293D-03 -0.54514084D-03 -0.29262951D-02
  0.44360284D-02 -0.15097333D-02 -0.10397353D-01  0.77534723D-02 -0.67372563D-02
 -0.86226114D-04  0.13976033D-03 -0.53534211D-04 -0.11082675D-02  0.69249230D-03
  0.16500563D-03
MO    3     MO 0.0        OCC NO =    2.0000000  ORB. ENERGY =    0.000000
  0.12890421D+00  0.24025625D+00  0.40738824D+00  0.61653878D+00  0.76908353D+00
  0.65998809D+00  0.25274038D+00  0.27037761D-03  0.29009743D-02  0.10693538D-01
  0.31267277D-01  0.37678589D-01 -0.45387853D-01 -0.13266386D-01 -0.55629151D-02
  0.30257275D-04 -0.19116435D+00 -0.18536511D+00 -0.12504621D+00  0.14068404D+01
  0.13641619D+01  0.92025557D+00  0.75784995D-01  0.73485953D-01  0.49573190D-01
 -0.43150752D-01  0.28638156D+00  0.15378941D-01 -0.70481536D-02  0.24510088D-01
  0.33008848D-03 -0.22389502D-03  0.21063791D-03  0.15413515D-04  0.61872568D-02
 -0.70715154D-02  0.88425864D-03  0.44937974D-03  0.78814633D-02 -0.13021585D+00
  0.78610421D-03 -0.26286075D-03 -0.52324346D-03  0.13681068D-04  0.19687992D-02
 -0.14688679D-01 -0.20748889D-03  0.26873063D-03 -0.61241738D-04 -0.90633178D-05
  0.12458684D-03  0.15782164D-02  0.11507734D-02  0.68633458D-02  0.12532291D-03
 -0.25221856D-02 -0.13325284D-01 -0.12039185D-02 -0.93013464D-03 -0.72647540D-02
  0.82794974D-03  0.35779951D-04  0.30736670D-04  0.13381746D-03  0.13510977D-03
 -0.37472383D-04 -0.59510371D-03  0.99638002D-04 -0.54737626D-04  0.19365134D-03
 -0.50496731D-03  0.45884510D-04 -0.42227222D-01 -0.76158533D-01 -0.11229571D+00
 -0.76913601D-01 -0.81762355D-02  0.10195072D-03 -0.28389582D-02 -0.30481520D-01
 -0.31366689D-01 -0.15442753D-02 -0.99883932D-02 -0.11410686D-01 -0.23394555D-03
  0.28659374D-03 -0.97334215D-04  0.84843982D-02 -0.63180097D-02 -0.21663884D-02
 -0.14373024D-02 -0.98121550D-03 -0.24936451D-01 -0.68267647D-04  0.21195341D-03
 -0.14368576D-03 -0.15451861D-03 -0.90855162D-04 -0.29474548D-03  0.31400625D-01
  0.56632321D-01  0.83504324D-01  0.61423203D-01  0.80889493D-02 -0.92940190D-04
 -0.26461327D-02 -0.16231204D-01  0.23799040D-01 -0.14430007D-02 -0.67620208D-02
  0.10190949D-01 -0.22321838D-03  0.10485036D-03  0.27952471D-03 -0.62556768D-02
  0.31408932D-02  0.31147836D-02  0.13086573D-02 -0.97588667D-03 -0.18674035D-01
 -0.46383956D-04 -0.11336559D-03  0.15974955D-03  0.13949150D-03 -0.87160176D-04
 -0.66414760D-03
MO    4     MO 0.0        OCC NO =    2.0000000  ORB. ENERGY =    0.000000
  0.42431014D+00  0.79084434D+00  0.13409877D+01  0.20294423D+01  0.25315693D+01
  0.21724631D+01  0.83193795D+00  0.11499781D-02  0.12338510D-01  0.45482071D-01
  0.13298691D+00  0.16025569D+00 -0.19304496D+00 -0.68580078D-01 -0.60788420D-01
 -0.47631233D-02 -0.34496433D-01 -0.33449936D-01 -0.22565129D-01 -0.40376831D+00
 -0.39151944D+00 -0.26411670D+00 -0.24452965D+00 -0.23711151D+00 -0.15995402D+00
 -0.77867397D-02 -0.83768342D-01 -0.50363767D-01 -0.12718698D-02 -0.77379131D-02
 -0.92430863D-02 -0.40402825D-04 -0.75567063D-04 -0.18641219D-03  0.56406889D-02
 -0.11901071D-01  0.62603822D-02  0.81092516D-04  0.14222441D-02  0.38130507D-01
  0.27173974D-02 -0.41927335D-02  0.14753361D-02  0.24688079D-05  0.35527833D-03
  0.54267629D-02  0.14278205D-03 -0.22636395D-03  0.83581892D-04 -0.16355149D-05
  0.22482233D-04 -0.32017037D-03  0.20766204D-03 -0.19283057D-02 -0.11790875D-02
 -0.45513930D-03  0.43290310D-02  0.98490344D-04 -0.16784682D-03  0.14558860D-02
  0.34387722D-02  0.64566468D-05  0.55465649D-05 -0.32866209D-04  0.54492539D-05
 -0.67620534D-05  0.24125243D-03 -0.25964142D-03 -0.98776412D-05 -0.14265381D-03
  0.24329366D-03  0.82800582D-05  0.14892469D-02  0.26859182D-02  0.39603848D-02
  0.17976869D-01  0.53437162D-02  0.41556460D-04 -0.51230228D-03 -0.43584961D-02
 -0.43695636D-02 -0.27867115D-03  0.26139185D-02  0.38488308D-03 -0.42216485D-04
  0.17742485D-03 -0.15619759D-03 -0.38536679D-04  0.46125200D-03 -0.42271532D-03
 -0.25936742D-03 -0.17706458D-03 -0.93476669D-03 -0.60069382D-04  0.69532211D-04
 -0.94628290D-05 -0.27883551D-04 -0.16395207D-04  0.73986684D-04 -0.18670101D-01
 -0.33672296D-01 -0.49649781D-01 -0.19821115D-01  0.10536088D-02  0.10888213D-03
 -0.47750608D-03  0.15330536D-01 -0.19090656D-01 -0.26039572D-03  0.13409012D-02
 -0.52827333D-02 -0.40280721D-04 -0.36674188D-03 -0.21327071D-03  0.35758639D-02
 -0.13457241D-02 -0.22301398D-02  0.23615286D-03 -0.17610297D-03  0.11591559D-01
 -0.71103013D-04  0.18654951D-03 -0.11544650D-03  0.25171844D-04 -0.15728430D-04
  0.17179059D-03
MO    5     MO 0.0        OCC NO =    2.0000000  ORB. ENERGY =    0.000000
  0.25007843D+00  0.46610508D+00  0.79034666D+00  0.11961056D+01  0.14920475D+01
  0.12803987D+01  0.49032469D+00 -0.12596050D-02 -0.13514735D-01 -0.49817857D-01
 -0.14566449D+00 -0.17553279D+00  0.21144785D+00  0.15943042D+00  0.72154964D-01
  0.58981385D-02  0.13902053D+00  0.13480315D+00  0.90937408D-01 -0.45087685D-01
 -0.43719887D-01 -0.29493178D-01  0.30262529D+00  0.29344473D+00  0.19795608D+00
  0.31380540D-01 -0.86881959D-02  0.63745224D-01  0.51256317D-02 -0.48708032D-03
  0.11355887D-01  0.16282327D-03 -0.42975579D-05  0.21934627D-03 -0.10327841D-01
  0.19339711D-01 -0.90118695D-02 -0.32680262D-03 -0.57316399D-02  0.45929592D-02
 -0.28699356D-02  0.47146441D-02 -0.18447085D-02 -0.99492891D-05 -0.14317707D-02
 -0.24237591D-03 -0.94343075D-04  0.17668216D-03 -0.82339089D-04  0.65911204D-05
 -0.90603337D-04 -0.10271848D-03 -0.83687744D-03 -0.39878829D-03  0.22416054D-02
  0.18342101D-02  0.52181617D-03  0.16143931D-02  0.67642221D-03  0.67454871D-03
 -0.83392092D-02 -0.26020269D-04 -0.22352641D-04  0.15937877D-04 -0.26395702D-03
  0.27251057D-04 -0.77313052D-04 -0.17536692D-03  0.39806867D-04  0.29499419D-04
  0.96723798D-03 -0.33368612D-04  0.11427234D-01  0.20609487D-01  0.30388676D-01
  0.16226203D-02 -0.41079049D-02 -0.97834333D-04  0.20645768D-02  0.11776762D-01
  0.14397842D-01  0.11230439D-02 -0.18564130D-02  0.23954110D-02  0.17013232D-03
 -0.43708201D-03  0.15508110D-03 -0.59621779D-03 -0.87697607D-03  0.14731939D-02
  0.10452500D-02  0.71356976D-03  0.36901498D-02  0.12778305D-03 -0.19216139D-03
  0.64378336D-04  0.11237063D-03  0.66072637D-04 -0.65933327D-04  0.79727617D-02
  0.14379204D-01  0.21202128D-01 -0.33637725D-02 -0.45756874D-02 -0.87138797D-04
  0.19243482D-02 -0.87619394D-02  0.11994656D-01  0.10493940D-02  0.24069595D-02
  0.16319102D-02  0.16233120D-03  0.41963291D-03  0.13040968D-03 -0.15785927D-04
 -0.13792209D-02  0.13950069D-02 -0.95169539D-03  0.70969447D-03 -0.16237236D-02
  0.11624732D-03 -0.17873749D-03  0.62490165D-04 -0.10144246D-03  0.63385531D-04
  0.79691977D-04
END DATA
 TOTAL ENERGY =    -76.465231046816 THE VIRIAL(-V/T)=   2.00523111
