 84
GAUSSIAN              5 MOL ORBITALS    126 PRIMITIVES        3 NUCLEI   B3LYP
  O    1    (CENTRE  1)   0.00000000  0.00000000  0.00815606  CHARGE =  8.0
  H    2    (CENTRE  2)   0.00000000 -1.34807204 -1.09730160  CHARGE =  1.0
  H    3    (CENTRE  3)   0.00000000  1.44255835 -1.00281530  CHARGE =  1.0
CENTRE ASSIGNMENTS    1  1  1  1  1  1  1  1  1  1  1  1  1  1  1  1  1  1  1  1
CENTRE ASSIGNMENTS    1  1  1  1  1  1  1  1  1  1  1  1  1  1  1  1  1  1  1  1
CENTRE ASSIGNMENTS    1  1  1  1  1  1  1  1  1  1  1  1  1  1  1  1  1  1  1  1
CENTRE ASSIGNMENTS    1  1  1  1  1  1  1  1  1  1  1  1  2  2  2  2  2  2  2  2
CENTRE ASSIGNMENTS    2  2  2  2  2  2  2  2  2  2  2  2  2  2  2  2  2  2  2  3
CENTRE ASSIGNMENTS    3  3  3  3  3  3  3  3  3  3  3  3  3  3  3  3  3  3  3  3
CENTRE ASSIGNMENTS    3  3  3  3  3  3
TYPE ASSIGNMENTS      1  1  1  1  1  1  1  1  1  1  1  1  1  1  1  1  2  2  2  3
TYPE ASSIGNMENTS      3  3  4  4  4  2  3  4  2  3  4  2  3  4  5  6  7  8  9 10
TYPE ASSIGNMENTS      5  6  7  8  9 10  5  6  7  8  9 10 11 12 13 17 14 15 18 19
TYPE ASSIGNMENTS     16 20 11 12 13 17 14 15 18 19 16 20  1  1  1  1  1  1  2  3
TYPE ASSIGNMENTS      4  2  3  4  2  3  4  5  6  7  8  9 10  5  6  7  8  9 10  1
TYPE ASSIGNMENTS      1  1  1  1  1  2  3  4  2  3  4  2  3  4  5  6  7  8  9 10
TYPE ASSIGNMENTS      5  6  7  8  9 10
EXPONENTS  0.1533000D+05 0.2299000D+04 0.5224000D+03 0.1473000D+03 0.4755000D+02
EXPONENTS  0.1676000D+02 0.6207000D+01 0.5224000D+03 0.1473000D+03 0.4755000D+02
EXPONENTS  0.1676000D+02 0.6207000D+01 0.6882000D+00 0.1752000D+01 0.2384000D+00
EXPONENTS  0.7376000D-01 0.3446000D+02 0.7749000D+01 0.2280000D+01 0.3446000D+02
EXPONENTS  0.7749000D+01 0.2280000D+01 0.3446000D+02 0.7749000D+01 0.2280000D+01
EXPONENTS  0.7156000D+00 0.7156000D+00 0.7156000D+00 0.2140000D+00 0.2140000D+00
EXPONENTS  0.2140000D+00 0.5974000D-01 0.5974000D-01 0.5974000D-01 0.2314000D+01
EXPONENTS  0.2314000D+01 0.2314000D+01 0.2314000D+01 0.2314000D+01 0.2314000D+01
EXPONENTS  0.6450000D+00 0.6450000D+00 0.6450000D+00 0.6450000D+00 0.6450000D+00
EXPONENTS  0.6450000D+00 0.2140000D+00 0.2140000D+00 0.2140000D+00 0.2140000D+00
EXPONENTS  0.2140000D+00 0.2140000D+00 0.1428000D+01 0.1428000D+01 0.1428000D+01
EXPONENTS  0.1428000D+01 0.1428000D+01 0.1428000D+01 0.1428000D+01 0.1428000D+01
EXPONENTS  0.1428000D+01 0.1428000D+01 0.5000000D+00 0.5000000D+00 0.5000000D+00
EXPONENTS  0.5000000D+00 0.5000000D+00 0.5000000D+00 0.5000000D+00 0.5000000D+00
EXPONENTS  0.5000000D+00 0.5000000D+00 0.3387000D+02 0.5095000D+01 0.1159000D+01
EXPONENTS  0.3258000D+00 0.1027000D+00 0.2526000D-01 0.1407000D+01 0.1407000D+01
EXPONENTS  0.1407000D+01 0.3880000D+00 0.3880000D+00 0.3880000D+00 0.1020000D+00
EXPONENTS  0.1020000D+00 0.1020000D+00 0.1057000D+01 0.1057000D+01 0.1057000D+01
EXPONENTS  0.1057000D+01 0.1057000D+01 0.1057000D+01 0.2470000D+00 0.2470000D+00
EXPONENTS  0.2470000D+00 0.2470000D+00 0.2470000D+00 0.2470000D+00 0.3387000D+02
EXPONENTS  0.5095000D+01 0.1159000D+01 0.3258000D+00 0.1027000D+00 0.2526000D-01
EXPONENTS  0.1407000D+01 0.1407000D+01 0.1407000D+01 0.3880000D+00 0.3880000D+00
EXPONENTS  0.3880000D+00 0.1020000D+00 0.1020000D+00 0.1020000D+00 0.1057000D+01
EXPONENTS  0.1057000D+01 0.1057000D+01 0.1057000D+01 0.1057000D+01 0.1057000D+01
EXPONENTS  0.2470000D+00 0.2470000D+00 0.2470000D+00 0.2470000D+00 0.2470000D+00
EXPONENTS  0.2470000D+00
MO    1     MO 0.0        OCC NO =    2.0000000  ORB. ENERGY =    0.000000
  0.25968541D-01  0.48401091D-01  0.82070851D-01  0.12420551D+00  0.15493658D+00
  0.13295863D+00  0.50916094D-01 -0.92019475D-04 -0.98730858D-03 -0.36394053D-02
 -0.10641408D-01 -0.12823414D-01  0.15447161D-01  0.12165299D-01  0.60052488D-01
  0.92348790D-02 -0.46893185D-02 -0.45470615D-02 -0.30674208D-02  0.57889034D-01
  0.56132890D-01  0.37866916D-01  0.16082819D+01  0.15594924D+01  0.10520244D+01
 -0.10576575D-02  0.10049198D-01  0.34629452D+00 -0.17137994D-03  0.12323946D-04
  0.40526774D-01 -0.53555759D-05 -0.21479537D-04  0.79747798D-03  0.43883814D-01
  0.10102148D-02 -0.44894029D-01 -0.53234644D-05  0.20143469D-03 -0.82801904D-02
  0.52017303D-02  0.71111864D-02 -0.12312917D-01 -0.21312298D-05  0.48380735D-04
  0.77066212D-03 -0.10510233D-02  0.15983972D-02 -0.54737382D-03 -0.20492264D-06
  0.28537185D-05  0.44494463D-03  0.28540312D-04  0.68044095D-05  0.17583054D-02
 -0.60529600D-04 -0.16926863D-03 -0.18682631D-01 -0.25091338D-04  0.14885540D-03
  0.13407714D-01 -0.28617112D-05  0.52445420D-06  0.11843366D-03  0.64714242D-03
 -0.44575023D-06  0.13530246D-05  0.14968136D-03 -0.11276124D-05 -0.35665401D-03
 -0.20911086D-02  0.45045753D-06 -0.32169108D-01 -0.58018312D-01 -0.85547967D-01
 -0.65706770D-01 -0.91764107D-02 -0.94008230D-04 -0.71105530D-04 -0.32407343D-01
 -0.42131195D-02 -0.38406434D-04 -0.13813676D-01 -0.44421879D-03 -0.57569821D-05
 -0.11972476D-03  0.12242109D-02  0.51164362D-02 -0.85085949D-02  0.33921587D-02
 -0.33903139D-04 -0.26779321D-04 -0.11625119D-01 -0.22460325D-04 -0.14572357D-03
  0.16818390D-03 -0.36522973D-05 -0.24917404D-05  0.84171096D-03 -0.25776165D-01
 -0.46488375D-01 -0.68547081D-01 -0.53076222D-01 -0.78798887D-02 -0.10918801D-03
 -0.69473931D-04  0.27402855D-01  0.32503721D-02 -0.37542355D-04  0.12138342D-01
  0.23250008D-02 -0.56692517D-05  0.73129723D-04  0.12364805D-02  0.37177280D-02
 -0.81943084D-02  0.44765804D-02  0.35057159D-04 -0.23593567D-04  0.55445643D-02
  0.16932936D-04 -0.12224199D-03  0.10530905D-03  0.37368582D-05 -0.21287618D-05
 -0.85490788D-03
MO    2     MO 0.0        OCC NO =    2.0000000  ORB. ENERGY =    0.000000
  0.43773439D+00  0.81586492D+00  0.13834136D+01  0.20936494D+01  0.26116626D+01
  0.22411951D+01  0.85825865D+00  0.26922313D-03  0.28885875D-02  0.10647877D-01
  0.31133769D-01  0.37517705D-01 -0.45194052D-01  0.23601990D-01 -0.11109602D-01
 -0.75958230D-03  0.50637775D+00  0.49101608D+00  0.33123655D+00 -0.62521270D+00
 -0.60624601D+00 -0.40896998D+00 -0.82209323D-01 -0.79715389D-01 -0.53775531D-01
  0.11421153D+00 -0.12582645D+00 -0.17050684D-01  0.18506524D-01 -0.10279709D-01
 -0.26763506D-02  0.57832381D-03 -0.79770090D-04 -0.49793781D-04 -0.11875231D-02
 -0.26224360D-02  0.38099591D-02  0.57485623D-03 -0.21751997D-01  0.58792380D-01
  0.46900781D-03 -0.10621551D-02  0.59314728D-03  0.23014162D-03 -0.52244112D-02
  0.57944912D-02  0.37135951D-04 -0.26942758D-04 -0.10193193D-04  0.22128646D-04
 -0.30815983D-03 -0.84149136D-03 -0.30819360D-02 -0.28814035D-02  0.43162804D-03
  0.65363108D-02  0.54810757D-02  0.15479374D-02  0.27094972D-02  0.31631349D-02
 -0.28428215D-02  0.30902292D-03 -0.56633376D-04 -0.76091045D-04 -0.10789596D-03
  0.48134500D-04  0.20600109D-03 -0.25579191D-03  0.12176563D-03  0.22272047D-04
  0.57947980D-03 -0.48642820D-04  0.14689824D-01  0.26493702D-01  0.39064949D-01
  0.30123726D-01  0.40603702D-02 -0.27281737D-04  0.76783564D-02  0.72432450D-02
  0.10471962D-01  0.41473327D-02  0.29429008D-02  0.40651810D-02  0.62166980D-03
 -0.65650384D-04 -0.54614380D-05 -0.20238091D-02  0.68812809D-03  0.13356810D-02
  0.36610427D-02  0.28917747D-02  0.60595421D-02  0.15792952D-04 -0.54787572D-04
  0.38994621D-04  0.39439464D-03  0.26907149D-03  0.86827241D-04 -0.18314180D-01
 -0.33030378D-01 -0.48703273D-01 -0.32754554D-01 -0.33803433D-02  0.49947957D-04
  0.75021676D-02  0.14173252D-01 -0.15727949D-01  0.40540248D-02  0.47754218D-02
 -0.59837470D-02  0.61219619D-03 -0.50384712D-04 -0.18064813D-03  0.47408539D-02
 -0.34702257D-02 -0.12706282D-02 -0.37856600D-02  0.25477598D-02  0.14130034D-01
 -0.76584012D-06  0.65944574D-04 -0.65178734D-04 -0.40352599D-03  0.22987512D-03
  0.25881704D-03
MO    3     MO 0.0        OCC NO =    2.0000000  ORB. ENERGY =    0.000000
  0.86992022D-01  0.16213883D+00  0.27492916D+00  0.41607606D+00  0.51902208D+00
  0.44539816D+00  0.17056384D+00 -0.72263263D-04 -0.77533739D-03 -0.28580396D-02
 -0.83567402D-02 -0.10070278D-01  0.12130717D-01  0.17557243D-01  0.14388557D-02
 -0.20441534D-03  0.10886822D+01  0.10556556D+01  0.71213901D+00  0.11428171D+01
  0.11081482D+01  0.74755020D+00 -0.58417153D-01 -0.56644988D-01 -0.38212374D-01
  0.24554804D+00  0.22961687D+00 -0.13852397D-01  0.39787934D-01  0.18755636D-01
 -0.19661004D-02  0.12433620D-02  0.14487721D-03 -0.48450808D-04 -0.43965076D-02
  0.54320569D-02 -0.10355493D-02  0.12359069D-02 -0.46765509D-01 -0.10645316D+00
 -0.68684353D-03  0.24013541D-03  0.44670812D-03  0.49479089D-03 -0.11232175D-01
 -0.10521542D-01  0.38572345D-04 -0.14368851D-03  0.10511617D-03  0.47575281D-04
 -0.66252542D-03  0.15329806D-02 -0.66259802D-02  0.54657984D-02 -0.10802647D-03
  0.14052682D-01 -0.98828478D-02  0.14662739D-02  0.58252588D-02 -0.65145474D-02
 -0.11421945D-02  0.66438102D-03 -0.12175841D-03  0.85951504D-04 -0.69904537D-04
  0.10348633D-03 -0.36003461D-03 -0.42729820D-04  0.26178891D-03  0.10218010D-03
  0.25244343D-03 -0.10457919D-03 -0.27228143D-01 -0.49107077D-01 -0.72408356D-01
 -0.53575725D-01 -0.65366615D-02  0.66961471D-04  0.16508013D-01 -0.16061816D-01
 -0.24370749D-01  0.89165202D-02 -0.61024018D-02 -0.96629578D-02  0.13365533D-02
  0.83358562D-04 -0.25419276D-03  0.61333478D-02 -0.25223978D-02 -0.36109500D-02
  0.78710254D-02  0.62171446D-02 -0.18638139D-01 -0.11901324D-04  0.13183659D-03
 -0.11993527D-03  0.84792517D-03  0.57848780D-03 -0.34985202D-03  0.32749820D-01
  0.59065648D-01  0.87092264D-01  0.61216736D-01  0.71987225D-02 -0.65910792D-04
  0.16129217D-01 -0.22874165D-01  0.23811145D-01  0.87159136D-02 -0.81071649D-02
  0.89148657D-02  0.13161856D-02  0.10440418D-03  0.90498345D-04 -0.63799993D-02
  0.46788876D-02  0.17011116D-02 -0.81389454D-02  0.54775331D-02 -0.18750333D-01
  0.66455773D-05 -0.87366451D-04  0.80720874D-04 -0.86755703D-03  0.49421792D-03
 -0.29786042D-03
MO    4     MO 0.0        OCC NO =    2.0000000  ORB. ENERGY =    0.000000
 -0.24381567D+00 -0.45443233D+00 -0.77055387D+00 -0.11661513D+01 -0.14546819D+01
 -0.12483335D+01 -0.47804540D+00 -0.40970079D-03 -0.43958206D-02 -0.16203822D-01
 -0.47379026D-01 -0.57094030D-01  0.68775809D-01  0.13767783D-01  0.21848241D-01
  0.18656025D-02  0.12947766D+01  0.12554977D+01  0.84695136D+00 -0.71374202D+00
 -0.69208967D+00 -0.46687960D+00  0.12492782D+00  0.12113797D+00  0.81718956D-01
  0.29203182D+00 -0.14322485D+00  0.27395071D-01  0.47320038D-01 -0.11718781D-01
  0.49390244D-02  0.14787382D-02 -0.91024160D-04  0.10094588D-03  0.32637659D-03
  0.15910433D-02 -0.19174199D-02  0.14698718D-02 -0.55618512D-01  0.66661718D-01
 -0.49584688D-03  0.12671609D-02 -0.77131400D-03  0.58845789D-03 -0.13358496D-01
  0.65483751D-02 -0.38933605D-04  0.12964362D-03 -0.90710013D-04  0.56581579D-04
 -0.78794561D-03 -0.96396334D-03 -0.78803196D-02 -0.33578664D-02  0.41243448D-03
  0.16712942D-01  0.60759646D-02 -0.10598222D-02  0.69280166D-02  0.39976347D-02
 -0.17748124D-03  0.79015249D-03 -0.14480804D-03 -0.54298526D-04  0.15627705D-04
  0.12307694D-03  0.21208678D-03  0.94595924D-04  0.31134718D-03 -0.49191202D-04
 -0.14147904D-03 -0.12437668D-03  0.20756677D-01  0.37435521D-01  0.55198655D-01
  0.34668613D-01  0.29443148D-02 -0.67673989D-04  0.19633082D-01  0.14446463D-01
  0.20597870D-01  0.10604473D-01  0.37983152D-02  0.71626647D-02  0.15895712D-02
 -0.15192283D-03  0.22737735D-03 -0.47680692D-02  0.18651199D-02  0.29029493D-02
  0.93610597D-02  0.73940889D-02  0.14757865D-01  0.37062045D-04 -0.13368747D-03
  0.96625429D-04  0.10084427D-02  0.68799915D-03  0.21127645D-03 -0.16618936D-01
 -0.29972936D-01 -0.44195076D-01 -0.36902028D-01 -0.56477406D-02  0.13057325D-04
  0.19182578D-01  0.95974957D-02 -0.98968761D-02  0.10365890D-01  0.50473260D-02
 -0.44542329D-02  0.15653478D-02  0.40888499D-04  0.15127251D-04  0.30862806D-02
 -0.24493792D-02 -0.63690138D-03 -0.96796985D-02  0.65144643D-02  0.86871293D-02
  0.26532018D-04 -0.11150203D-05 -0.25416997D-04 -0.10317910D-02  0.58777645D-03
  0.18178121D-03
MO    5     MO 0.0        OCC NO =    2.0000000  ORB. ENERGY =    0.000000
  0.19541674D-02  0.36422467D-02  0.61759412D-02  0.93466303D-02  0.11659185D-01
  0.10005315D-01  0.38315041D-02 -0.16572236D-02 -0.17780922D-01 -0.65543827D-01
 -0.19164631D+00 -0.23094312D+00  0.27819546D+00  0.17132386D+00  0.84014182D-01
  0.61922042D-02 -0.28504457D+00 -0.27639735D+00 -0.18645602D+00  0.11096388D-01
  0.10759764D-01  0.72584734D-02  0.17185097D+00  0.16663763D+00  0.11241276D+00
 -0.64290694D-01  0.27111052D-02  0.35544144D-01 -0.10417488D-01  0.14120957D-03
  0.95044338D-02 -0.32554365D-03 -0.14867154D-05  0.17190550D-03 -0.18140796D-01
  0.23298634D-01 -0.51578376D-02 -0.32359172D-03  0.12244394D-01  0.80109389D-03
 -0.41279956D-02  0.46691752D-02 -0.54117968D-03 -0.12954878D-03  0.29408678D-02
 -0.15908183D-03  0.53732329D-04 -0.34065611D-04 -0.19666718D-04 -0.12456413D-04
  0.17346593D-03 -0.25916843D-04  0.17348494D-02  0.50420269D-03  0.21986933D-02
 -0.36793479D-02 -0.40686828D-03  0.38433403D-02 -0.15252002D-02 -0.11057398D-02
 -0.10439420D-01 -0.17395177D-03  0.31879435D-04 -0.55488760D-04 -0.39832442D-03
 -0.27095341D-04 -0.45783249D-04 -0.19038373D-03 -0.68542963D-04  0.21224953D-03
  0.13853570D-02  0.27381479D-04  0.16916354D-01  0.30509342D-01  0.44986007D-01
  0.74489141D-02 -0.42274274D-02 -0.98570412D-04 -0.43222156D-02  0.17676235D-01
  0.19155473D-01 -0.23345707D-02 -0.59854048D-03  0.28583609D-02 -0.34994350D-03
 -0.48637167D-03  0.32140454D-04 -0.19124100D-02  0.20058687D-03  0.17118231D-02
 -0.20608337D-02 -0.16278059D-02  0.68061583D-02  0.15131960D-03 -0.19866058D-03
  0.47340981D-04 -0.22200828D-03 -0.15146275D-03 -0.23610884D-03  0.17482589D-01
  0.31530569D-01  0.46491805D-01  0.88702101D-02 -0.40352294D-02 -0.10189648D-03
 -0.42230373D-02 -0.19041113D-01  0.17993684D-01 -0.22820468D-02  0.24655733D-03
  0.31478602D-02 -0.34461072D-03  0.49377479D-03  0.73097009D-04 -0.19874743D-02
  0.71428725D-03  0.12731871D-02  0.21309819D-02 -0.14341568D-02 -0.71431920D-02
  0.14426077D-03 -0.21958639D-03  0.75325626D-04  0.22714839D-03 -0.12939876D-03
  0.16193549D-03
END DATA
 TOTAL ENERGY =    -76.463744943077 THE VIRIAL(-V/T)=   2.00410904
