 84
GAUSSIAN              5 MOL ORBITALS    126 PRIMITIVES        3 NUCLEI   B3LYP
  O    1    (CENTRE  1)   0.00000000  0.00000000  0.00815606  CHARGE =  8.0
  H    2    (CENTRE  2)   0.00000000 -1.34807204 -1.09730160  CHARGE =  1.0
  H    3    (CENTRE  3)   0.00000000  1.44255835 -1.19178791  CHARGE =  1.0
CENTRE ASSIGNMENTS    1  1  1  1  1  1  1  1  1  1  1  1  1  1  1  1  1  1  1  1
CENTRE ASSIGNMENTS    1  1  1  1  1  1  1  1  1  1  1  1  1  1  1  1  1  1  1  1
CENTRE ASSIGNMENTS    1  1  1  1  1  1  1  1  1  1  1  1  1  1  1  1  1  1  1  1
CENTRE ASSIGNMENTS    1  1  1  1  1  1  1  1  1  1  1  1  2  2  2  2  2  2  2  2
CENTRE ASSIGNMENTS    2  2  2  2  2  2  2  2  2  2  2  2  2  2  2  2  2  2  2  3
CENTRE ASSIGNMENTS    3  3  3  3  3  3  3  3  3  3  3  3  3  3  3  3  3  3  3  3
CENTRE ASSIGNMENTS    3  3  3  3  3  3
TYPE ASSIGNMENTS      1  1  1  1  1  1  1  1  1  1  1  1  1  1  1  1  2  2  2  3
TYPE ASSIGNMENTS      3  3  4  4  4  2  3  4  2  3  4  2  3  4  5  6  7  8  9 10
TYPE ASSIGNMENTS      5  6  7  8  9 10  5  6  7  8  9 10 11 12 13 17 14 15 18 19
TYPE ASSIGNMENTS     16 20 11 12 13 17 14 15 18 19 16 20  1  1  1  1  1  1  2  3
TYPE ASSIGNMENTS      4  2  3  4  2  3  4  5  6  7  8  9 10  5  6  7  8  9 10  1
TYPE ASSIGNMENTS      1  1  1  1  1  2  3  4  2  3  4  2  3  4  5  6  7  8  9 10
TYPE ASSIGNMENTS      5  6  7  8  9 10
EXPONENTS  0.1533000D+05 0.2299000D+04 0.5224000D+03 0.1473000D+03 0.4755000D+02
EXPONENTS  0.1676000D+02 0.6207000D+01 0.5224000D+03 0.1473000D+03 0.4755000D+02
EXPONENTS  0.1676000D+02 0.6207000D+01 0.6882000D+00 0.1752000D+01 0.2384000D+00
EXPONENTS  0.7376000D-01 0.3446000D+02 0.7749000D+01 0.2280000D+01 0.3446000D+02
EXPONENTS  0.7749000D+01 0.2280000D+01 0.3446000D+02 0.7749000D+01 0.2280000D+01
EXPONENTS  0.7156000D+00 0.7156000D+00 0.7156000D+00 0.2140000D+00 0.2140000D+00
EXPONENTS  0.2140000D+00 0.5974000D-01 0.5974000D-01 0.5974000D-01 0.2314000D+01
EXPONENTS  0.2314000D+01 0.2314000D+01 0.2314000D+01 0.2314000D+01 0.2314000D+01
EXPONENTS  0.6450000D+00 0.6450000D+00 0.6450000D+00 0.6450000D+00 0.6450000D+00
EXPONENTS  0.6450000D+00 0.2140000D+00 0.2140000D+00 0.2140000D+00 0.2140000D+00
EXPONENTS  0.2140000D+00 0.2140000D+00 0.1428000D+01 0.1428000D+01 0.1428000D+01
EXPONENTS  0.1428000D+01 0.1428000D+01 0.1428000D+01 0.1428000D+01 0.1428000D+01
EXPONENTS  0.1428000D+01 0.1428000D+01 0.5000000D+00 0.5000000D+00 0.5000000D+00
EXPONENTS  0.5000000D+00 0.5000000D+00 0.5000000D+00 0.5000000D+00 0.5000000D+00
EXPONENTS  0.5000000D+00 0.5000000D+00 0.3387000D+02 0.5095000D+01 0.1159000D+01
EXPONENTS  0.3258000D+00 0.1027000D+00 0.2526000D-01 0.1407000D+01 0.1407000D+01
EXPONENTS  0.1407000D+01 0.3880000D+00 0.3880000D+00 0.3880000D+00 0.1020000D+00
EXPONENTS  0.1020000D+00 0.1020000D+00 0.1057000D+01 0.1057000D+01 0.1057000D+01
EXPONENTS  0.1057000D+01 0.1057000D+01 0.1057000D+01 0.2470000D+00 0.2470000D+00
EXPONENTS  0.2470000D+00 0.2470000D+00 0.2470000D+00 0.2470000D+00 0.3387000D+02
EXPONENTS  0.5095000D+01 0.1159000D+01 0.3258000D+00 0.1027000D+00 0.2526000D-01
EXPONENTS  0.1407000D+01 0.1407000D+01 0.1407000D+01 0.3880000D+00 0.3880000D+00
EXPONENTS  0.3880000D+00 0.1020000D+00 0.1020000D+00 0.1020000D+00 0.1057000D+01
EXPONENTS  0.1057000D+01 0.1057000D+01 0.1057000D+01 0.1057000D+01 0.1057000D+01
EXPONENTS  0.2470000D+00 0.2470000D+00 0.2470000D+00 0.2470000D+00 0.2470000D+00
EXPONENTS  0.2470000D+00
MO    1     MO 0.0        OCC NO =    2.0000000  ORB. ENERGY =    0.000000
  0.24260746D+00  0.45218042D+00  0.76673544D+00  0.11603726D+01  0.14474733D+01
  0.12421474D+01  0.47567648D+00  0.34582585D-03  0.37104845D-02  0.13677544D-01
  0.39992338D-01  0.48192711D-01 -0.58053228D-01 -0.69576339D-02  0.29459708D-01
  0.65437979D-02  0.30111935D+00  0.29198448D+00  0.19697101D+00  0.12917497D+00
  0.12525627D+00  0.84497141D-01  0.12915478D+01  0.12523669D+01  0.84483933D+00
  0.67957726D-01  0.21219533D-01  0.27939594D+00  0.11150562D-01 -0.30815411D-03
  0.31465488D-01  0.35466880D-03 -0.19253361D-04  0.58094207D-03  0.39828566D-01
 -0.21768511D-02 -0.37651714D-01 -0.10425555D-02 -0.12726982D-01 -0.15407684D-01
  0.59531057D-02  0.46663108D-02 -0.10619417D-01  0.66258172D-04 -0.32381454D-02
  0.14777028D-02 -0.72219860D-03  0.11576860D-02 -0.43548742D-03  0.39642457D-04
 -0.21090790D-03  0.87935058D-03 -0.18093441D-02  0.30962369D-03  0.19438455D-02
  0.35186199D-02  0.23051908D-03 -0.16456774D-01  0.19094124D-02 -0.11593902D-02
  0.10625238D-01  0.13228668D-03 -0.62144979D-04  0.15416396D-03  0.62298639D-03
  0.86862371D-04  0.25380868D-03 -0.31045799D-03  0.99572565D-04 -0.71630056D-03
 -0.15585012D-02 -0.17417948D-03 -0.32769508D-01 -0.59101157D-01 -0.87144622D-01
 -0.61293680D-01 -0.74076870D-02 -0.63693530D-04  0.45924387D-02 -0.33526662D-01
 -0.10381628D-01  0.24781594D-02 -0.12646386D-01 -0.22394314D-02  0.37005174D-03
 -0.29550529D-04  0.88928393D-03  0.59559506D-02 -0.79130241D-02  0.19570735D-02
  0.22107832D-02  0.17309648D-02 -0.14802679D-01 -0.54815952D-04 -0.64107902D-04
  0.11892385D-03  0.23317272D-03  0.15838408D-03  0.65478098D-03 -0.24948414D-01
 -0.44995492D-01 -0.66345827D-01 -0.43967018D-01 -0.64576810D-02 -0.80474855D-04
  0.38927982D-02  0.23044600D-01 -0.28688395D-02  0.21111215D-02  0.98594251D-02
 -0.28385182D-03  0.32994240D-03  0.16795940D-03  0.79710841D-03  0.34342851D-02
 -0.57402887D-02  0.23060036D-02 -0.19100781D-02  0.14934602D-02  0.72076859D-02
  0.13514610D-03 -0.16714029D-03  0.31994197D-04 -0.19185056D-03  0.11948230D-03
 -0.20268127D-03
MO    2     MO 0.0        OCC NO =    2.0000000  ORB. ENERGY =    0.000000
  0.34730950D+00  0.64732781D+00  0.10976353D+01  0.16611543D+01  0.20721590D+01
  0.17782207D+01  0.68096406D+00 -0.41040525D-04 -0.44033790D-03 -0.16231684D-02
 -0.47460492D-02 -0.57192201D-02  0.68894067D-02  0.44274820D-01 -0.11194641D-01
 -0.27079853D-02 -0.24401601D+00 -0.23661345D+00 -0.15961804D+00  0.84825049D+00
  0.82251764D+00  0.55486554D+00 -0.58397216D+00 -0.56625656D+00 -0.38199333D+00
 -0.55070433D-01  0.17625277D+00 -0.12873097D+00 -0.90360043D-02  0.17648194D-01
 -0.16335186D-01 -0.28741051D-03  0.17854198D-03 -0.30287252D-03 -0.18593467D-01
  0.15993288D-03  0.18433534D-01  0.84484849D-03  0.10313476D-01 -0.77443067D-01
 -0.29529089D-02 -0.19864318D-02  0.49393408D-02 -0.53693178D-04  0.26240735D-02
 -0.10900824D-01  0.14196792D-03 -0.40425720D-03  0.26228929D-03 -0.32124785D-04
  0.17091198D-03  0.27940323D-03  0.14662257D-02  0.37827179D-02 -0.36959413D-03
 -0.28513597D-02 -0.83880919D-02  0.89200959D-02 -0.15473173D-02 -0.29600618D-02
 -0.78113135D-02 -0.10720025D-03  0.50359998D-04 -0.22106102D-04 -0.28061291D-03
 -0.70390060D-04 -0.62465976D-03  0.10302682D-03 -0.80689933D-04  0.69097807D-03
  0.73881189D-03  0.14114863D-03 -0.98160532D-02 -0.17703656D-01 -0.26104031D-01
 -0.19861366D-01 -0.21200522D-02  0.92887910D-04 -0.37215429D-02 -0.69605494D-03
 -0.17398686D-01 -0.20082090D-02 -0.23249421D-03 -0.75977023D-02 -0.29987627D-03
  0.18386292D-03 -0.56394544D-03  0.34914234D-02  0.71322858D-03 -0.42046520D-02
 -0.17915371D-02 -0.14027100D-02 -0.11818478D-01  0.28081836D-04  0.16126105D-03
 -0.18934288D-03 -0.18895457D-03 -0.12834862D-03 -0.49695620D-03  0.32969522D-01
  0.59461890D-01  0.87676522D-01  0.60096636D-01  0.85376645D-02 -0.29588356D-04
 -0.31545800D-02 -0.20084274D-01  0.16544105D-01 -0.17107749D-02 -0.83385985D-02
  0.66071281D-02 -0.26737315D-03  0.14438157D-04 -0.21602439D-03 -0.49212447D-02
  0.34793567D-02  0.14418880D-02  0.15478568D-02 -0.12102450D-02 -0.13173510D-01
 -0.19345225D-03  0.65941859D-04  0.12751039D-03  0.15546862D-03 -0.96824049D-04
 -0.41942898D-03
MO    3     MO 0.0        OCC NO =    2.0000000  ORB. ENERGY =    0.000000
  0.16682960D+00  0.31094294D+00  0.52724744D+00  0.79793294D+00  0.99535845D+00
  0.85416563D+00  0.32710006D+00  0.33483168D-04  0.35925242D-03  0.13242721D-02
  0.38720939D-02  0.46660614D-02 -0.56207654D-02  0.16691378D-01 -0.19226098D-01
 -0.28791489D-02  0.14200724D+01  0.13769926D+01  0.92891106D+00 -0.62182292D+00
 -0.60295906D+00 -0.40675262D+00 -0.47203096D+00 -0.45771125D+00 -0.30876930D+00
  0.32048718D+00 -0.12773928D+00 -0.99605445D-01  0.52585814D-01 -0.11803216D-01
 -0.10712294D-01  0.16726105D-02 -0.12377245D-03 -0.20028571D-03 -0.14565798D-01
  0.16642559D-02  0.12901542D-01 -0.49166693D-02 -0.60020174D-01  0.61106444D-01
 -0.12901683D-02 -0.23664420D-02  0.36566102D-02  0.31247212D-03 -0.15271024D-01
  0.72297992D-02  0.40554046D-03 -0.52372177D-03  0.11818132D-03  0.18695298D-03
 -0.99463714D-03 -0.58316686D-03 -0.85328280D-02 -0.25700729D-02 -0.68539405D-03
  0.16593736D-01  0.61726096D-02  0.58642752D-02  0.90047480D-02  0.15376090D-02
 -0.38080931D-02  0.62386116D-03 -0.29307439D-03 -0.80462707D-04 -0.32181225D-03
  0.40964108D-03  0.24416049D-03 -0.21398861D-03  0.46958209D-03 -0.27723684D-05
  0.11794254D-02 -0.82142671D-03  0.25198836D-01  0.45447138D-01  0.67011778D-01
  0.48416969D-01  0.57538764D-02 -0.24831401D-04  0.21657843D-01  0.18208476D-01
  0.14495976D-01  0.11686947D-01  0.66552808D-02  0.48341369D-02  0.17451561D-02
 -0.19169848D-03 -0.30632786D-03 -0.41937847D-02  0.31914454D-02  0.10023393D-02
  0.10426006D-01  0.81631930D-02  0.11465409D-01  0.40370071D-04 -0.87462600D-04
  0.47092529D-04  0.10996376D-02  0.74693594D-03 -0.18871647D-03 -0.67325141D-02
 -0.12142366D-01 -0.17903912D-01 -0.10775944D-01 -0.78412052D-03  0.92197372D-04
  0.18358353D-01 -0.24066616D-03 -0.10286378D-01  0.99560036D-02 -0.90186711D-03
 -0.43190782D-02  0.15560013D-02 -0.18251560D-03 -0.37752634D-03  0.17406900D-02
  0.92048114D-03 -0.26611711D-02 -0.90078876D-02  0.70431263D-02  0.63535719D-02
  0.22692133D-04  0.89798245D-04 -0.11249038D-03 -0.90476314D-03  0.56347598D-03
  0.39098880D-03
MO    4     MO 0.0        OCC NO =    2.0000000  ORB. ENERGY =    0.000000
 -0.22808320D+00 -0.42510958D+00 -0.72083304D+00 -0.10909042D+01 -0.13608169D+01
 -0.11677834D+01 -0.44719900D+00 -0.59134339D-03 -0.63447265D-02 -0.23387857D-01
 -0.68384721D-01 -0.82406914D-01  0.99267861D-01  0.33326033D-01  0.40650728D-01
  0.35576761D-02  0.98705820D+00  0.95711442D+00  0.64566374D+00  0.96959469D+00
  0.94018070D+00  0.63424034D+00  0.27518515D+00  0.26683703D+00  0.18000668D+00
  0.22276293D+00  0.20158513D+00  0.54860617D-01  0.36551134D-01  0.19692513D-01
  0.64697249D-02  0.11625913D-02  0.20899781D-03  0.11896887D-03  0.23932507D-02
  0.35966909D-02 -0.59899417D-02 -0.34174586D-02 -0.41718579D-01 -0.92904448D-01
 -0.14694063D-02  0.30633583D-02 -0.15939521D-02  0.21719186D-03 -0.10614522D-01
 -0.12829333D-01 -0.36714602D-03  0.38403797D-03 -0.16891946D-04  0.12994652D-03
 -0.69134835D-03  0.55046806D-03 -0.59309635D-02  0.41248831D-02  0.97708791D-03
  0.11533907D-01 -0.10151837D-01 -0.13730241D-02  0.62589838D-02 -0.22228122D-02
 -0.15582396D-02  0.43363089D-03 -0.20370896D-03  0.57610238D-04  0.17452442D-03
  0.28473166D-03 -0.59254912D-03  0.39482056D-03  0.32639521D-03  0.41971841D-03
 -0.91839382D-03 -0.57095395D-03 -0.23618691D-01 -0.42597281D-01 -0.62809666D-01
 -0.52827232D-01 -0.75809221D-02  0.38621543D-04  0.15053846D-01 -0.11847723D-01
 -0.15128418D-01  0.81233157D-02 -0.60956837D-02 -0.66486740D-02  0.12130160D-02
  0.18783618D-03  0.11151914D-03  0.43137202D-02 -0.21218244D-02 -0.21918958D-02
  0.72468662D-02  0.56740391D-02 -0.12195076D-01 -0.28562386D-05  0.12703566D-03
 -0.12417942D-03  0.76433162D-03  0.51917721D-03 -0.46672772D-04  0.25053045D-01
  0.45184198D-01  0.66624074D-01  0.37547633D-01  0.30275789D-02 -0.13913058D-03
  0.12760450D-01 -0.12751257D-01  0.22039596D-01  0.69201787D-02 -0.24614419D-02
  0.78607021D-02  0.10815391D-02  0.33717665D-03  0.29377080D-03 -0.44811348D-02
  0.74640675D-03  0.37347281D-02 -0.62611660D-02  0.48955077D-02 -0.14038983D-01
 -0.77338200D-04 -0.11279136D-03  0.19012956D-03 -0.62887910D-03  0.39165860D-03
 -0.54356765D-03
MO    5     MO 0.0        OCC NO =    2.0000000  ORB. ENERGY =    0.000000
  0.31709199D-03  0.59100733D-03  0.10021360D-02  0.15166262D-02  0.18918717D-02
  0.16235074D-02  0.62171708D-03 -0.16036754D-02 -0.17206384D-01 -0.63425973D-01
 -0.18545382D+00 -0.22348088D+00  0.26920640D+00  0.16606644D+00  0.92820051D-01
  0.78068072D-02 -0.26314080D+00 -0.25515806D+00 -0.17212812D+00 -0.35751516D+00
 -0.34666944D+00 -0.23386116D+00  0.50434676D+00  0.48904670D+00  0.32990802D+00
 -0.59386584D-01 -0.72363040D-01  0.10734792D+00 -0.97442021D-02 -0.65478173D-02
  0.17612911D-01 -0.30993634D-03 -0.71587154D-04  0.31104122D-03 -0.68098729D-02
  0.19833447D-01 -0.13023574D-01  0.91106358D-03  0.11121796D-01  0.35461155D-01
 -0.29237938D-02  0.59019036D-02 -0.29781098D-02 -0.57901387D-04  0.28297356D-02
  0.26924009D-02 -0.14672027D-03  0.31386949D-03 -0.16714923D-03 -0.34642568D-04
  0.18430722D-03 -0.33512306D-03  0.15811413D-02 -0.15505010D-02  0.25334339D-02
 -0.30748353D-02  0.32733101D-02 -0.60674238D-03 -0.16685885D-02  0.13781929D-02
 -0.69935593D-02 -0.11560208D-03  0.54306968D-04 -0.21213816D-04 -0.10892893D-03
 -0.75906889D-04 -0.35346841D-04 -0.12462359D-03 -0.87014015D-04  0.98988288D-04
  0.45141037D-03  0.15221116D-03  0.18997019D-01  0.34261906D-01  0.50519161D-01
  0.11407689D-01 -0.38958655D-02 -0.14815707D-03 -0.40132192D-02  0.16102726D-01
  0.25735868D-01 -0.21656026D-02 -0.12052603D-02  0.56312869D-02 -0.32337911D-03
 -0.53425473D-03  0.30576957D-03 -0.28733532D-02 -0.45255017D-03  0.33259034D-02
 -0.19319490D-02 -0.15126475D-02  0.10150409D-01  0.11837993D-03 -0.21838517D-03
  0.10000524D-03 -0.20376390D-03 -0.13840795D-03  0.16617332D-04 -0.14797627D-02
 -0.26688129D-02 -0.39351631D-02 -0.23351697D-01 -0.81818215D-02 -0.88984820D-04
 -0.34018206D-02 -0.41344257D-02  0.85356329D-02 -0.18448571D-02  0.49149058D-02
 -0.27419495D-03 -0.28832855D-03  0.45861491D-03  0.17706229D-03  0.10783473D-02
 -0.20279409D-02  0.94959356D-03  0.16691703D-02 -0.13050981D-02  0.20907450D-02
  0.16640415D-03 -0.19089275D-03  0.24488594D-04  0.16765348D-03 -0.10441264D-03
  0.22807426D-03
END DATA
 TOTAL ENERGY =    -76.463251042390 THE VIRIAL(-V/T)=   2.00549209
