 85
GAUSSIAN              5 MOL ORBITALS    126 PRIMITIVES        3 NUCLEI   B3LYP
  O    1    (CENTRE  1)   0.00000000  0.00000000  0.00815606  CHARGE =  8.0
  H    2    (CENTRE  2)   0.00000000 -1.44255835 -1.19178791  CHARGE =  1.0
  H    3    (CENTRE  3)   0.00000000  1.44255835 -1.00281530  CHARGE =  1.0
CENTRE ASSIGNMENTS    1  1  1  1  1  1  1  1  1  1  1  1  1  1  1  1  1  1  1  1
CENTRE ASSIGNMENTS    1  1  1  1  1  1  1  1  1  1  1  1  1  1  1  1  1  1  1  1
CENTRE ASSIGNMENTS    1  1  1  1  1  1  1  1  1  1  1  1  1  1  1  1  1  1  1  1
CENTRE ASSIGNMENTS    1  1  1  1  1  1  1  1  1  1  1  1  2  2  2  2  2  2  2  2
CENTRE ASSIGNMENTS    2  2  2  2  2  2  2  2  2  2  2  2  2  2  2  2  2  2  2  3
CENTRE ASSIGNMENTS    3  3  3  3  3  3  3  3  3  3  3  3  3  3  3  3  3  3  3  3
CENTRE ASSIGNMENTS    3  3  3  3  3  3
TYPE ASSIGNMENTS      1  1  1  1  1  1  1  1  1  1  1  1  1  1  1  1  2  2  2  3
TYPE ASSIGNMENTS      3  3  4  4  4  2  3  4  2  3  4  2  3  4  5  6  7  8  9 10
TYPE ASSIGNMENTS      5  6  7  8  9 10  5  6  7  8  9 10 11 12 13 17 14 15 18 19
TYPE ASSIGNMENTS     16 20 11 12 13 17 14 15 18 19 16 20  1  1  1  1  1  1  2  3
TYPE ASSIGNMENTS      4  2  3  4  2  3  4  5  6  7  8  9 10  5  6  7  8  9 10  1
TYPE ASSIGNMENTS      1  1  1  1  1  2  3  4  2  3  4  2  3  4  5  6  7  8  9 10
TYPE ASSIGNMENTS      5  6  7  8  9 10
EXPONENTS  0.1533000D+05 0.2299000D+04 0.5224000D+03 0.1473000D+03 0.4755000D+02
EXPONENTS  0.1676000D+02 0.6207000D+01 0.5224000D+03 0.1473000D+03 0.4755000D+02
EXPONENTS  0.1676000D+02 0.6207000D+01 0.6882000D+00 0.1752000D+01 0.2384000D+00
EXPONENTS  0.7376000D-01 0.3446000D+02 0.7749000D+01 0.2280000D+01 0.3446000D+02
EXPONENTS  0.7749000D+01 0.2280000D+01 0.3446000D+02 0.7749000D+01 0.2280000D+01
EXPONENTS  0.7156000D+00 0.7156000D+00 0.7156000D+00 0.2140000D+00 0.2140000D+00
EXPONENTS  0.2140000D+00 0.5974000D-01 0.5974000D-01 0.5974000D-01 0.2314000D+01
EXPONENTS  0.2314000D+01 0.2314000D+01 0.2314000D+01 0.2314000D+01 0.2314000D+01
EXPONENTS  0.6450000D+00 0.6450000D+00 0.6450000D+00 0.6450000D+00 0.6450000D+00
EXPONENTS  0.6450000D+00 0.2140000D+00 0.2140000D+00 0.2140000D+00 0.2140000D+00
EXPONENTS  0.2140000D+00 0.2140000D+00 0.1428000D+01 0.1428000D+01 0.1428000D+01
EXPONENTS  0.1428000D+01 0.1428000D+01 0.1428000D+01 0.1428000D+01 0.1428000D+01
EXPONENTS  0.1428000D+01 0.1428000D+01 0.5000000D+00 0.5000000D+00 0.5000000D+00
EXPONENTS  0.5000000D+00 0.5000000D+00 0.5000000D+00 0.5000000D+00 0.5000000D+00
EXPONENTS  0.5000000D+00 0.5000000D+00 0.3387000D+02 0.5095000D+01 0.1159000D+01
EXPONENTS  0.3258000D+00 0.1027000D+00 0.2526000D-01 0.1407000D+01 0.1407000D+01
EXPONENTS  0.1407000D+01 0.3880000D+00 0.3880000D+00 0.3880000D+00 0.1020000D+00
EXPONENTS  0.1020000D+00 0.1020000D+00 0.1057000D+01 0.1057000D+01 0.1057000D+01
EXPONENTS  0.1057000D+01 0.1057000D+01 0.1057000D+01 0.2470000D+00 0.2470000D+00
EXPONENTS  0.2470000D+00 0.2470000D+00 0.2470000D+00 0.2470000D+00 0.3387000D+02
EXPONENTS  0.5095000D+01 0.1159000D+01 0.3258000D+00 0.1027000D+00 0.2526000D-01
EXPONENTS  0.1407000D+01 0.1407000D+01 0.1407000D+01 0.3880000D+00 0.3880000D+00
EXPONENTS  0.3880000D+00 0.1020000D+00 0.1020000D+00 0.1020000D+00 0.1057000D+01
EXPONENTS  0.1057000D+01 0.1057000D+01 0.1057000D+01 0.1057000D+01 0.1057000D+01
EXPONENTS  0.2470000D+00 0.2470000D+00 0.2470000D+00 0.2470000D+00 0.2470000D+00
EXPONENTS  0.2470000D+00
MO    1     MO 0.0        OCC NO =    2.0000000  ORB. ENERGY =    0.000000
 -0.16325362D-01 -0.30427791D-01 -0.51594596D-01 -0.78082935D-01 -0.97402307D-01
 -0.83585670D-01 -0.32008871D-01 -0.23286452D-03 -0.24984835D-02 -0.92098806D-02
 -0.26929151D-01 -0.32450936D-01  0.39090591D-01  0.22433948D-01 -0.29543162D-01
 -0.61000306D-02  0.74252659D+00  0.72000102D+00  0.48570843D+00  0.81530404D+00
  0.79057067D+00  0.53331430D+00 -0.11036392D+01 -0.10701588D+01 -0.72192280D+00
  0.16763633D+00  0.16557601D+00 -0.23816269D+00  0.27556696D-01  0.14174981D-01
 -0.27306136D-01  0.88323865D-03  0.14574372D-03 -0.54327445D-03 -0.34980015D-01
  0.86077679D-02  0.26372247D-01  0.34195011D-02 -0.30283370D-01 -0.76838240D-01
 -0.45253885D-02 -0.39823932D-02  0.85077817D-02  0.16246560D-03 -0.77913389D-02
 -0.85687570D-02  0.74539857D-03 -0.12093138D-02  0.46391527D-03 -0.66984539D-04
 -0.52065229D-03  0.97269976D-03 -0.44343475D-02  0.37827173D-02 -0.10212292D-02
  0.93385701D-02 -0.76119021D-02  0.13631351D-01  0.39644723D-02 -0.37362499D-02
 -0.10567663D-01  0.12811612D-03 -0.15524762D-03  0.10944376D-03 -0.60664776D-03
  0.21234307D-03 -0.21921295D-03 -0.10562705D-04  0.25339980D-03 -0.10911832D-03
  0.18305060D-02  0.35761121D-03  0.39082520D-02  0.70486934D-02  0.10393294D-01
  0.72399926D-02  0.20923523D-02  0.14057478D-03  0.95846584D-02  0.11056752D-01
 -0.10027037D-01  0.52351792D-02  0.55829064D-02 -0.47716969D-02  0.82422215D-03
  0.32333609D-03 -0.80831407D-03  0.51501299D-03  0.34792123D-02 -0.39942253D-02
  0.46787109D-02  0.37522278D-02 -0.34357156D-02 -0.89828328D-04  0.27074706D-03
 -0.18091873D-03  0.48184625D-03  0.31364868D-03 -0.54424711D-03  0.44426221D-01
  0.80124519D-01  0.11814356D+00  0.83521551D-01  0.10149166D-01  0.53394074D-05
  0.11056326D-01 -0.38379462D-01  0.18443070D-01  0.60046499D-02 -0.14380195D-01
  0.56124251D-02  0.90831059D-03  0.15856404D-03 -0.75161501D-03 -0.75986648D-02
  0.90900818D-02 -0.14914170D-02 -0.56234218D-02  0.38192283D-02 -0.19359639D-01
  0.27623341D-04 -0.11211699D-04 -0.16411642D-04 -0.59645870D-03  0.35017884D-03
  0.40453801D-03
MO    2     MO 0.0        OCC NO =    2.0000000  ORB. ENERGY =    0.000000
 -0.46463140D-01 -0.86599654D-01 -0.14684188D+00 -0.22222957D+00 -0.27721388D+00
 -0.23789075D+00 -0.91099519D-01  0.24568894D-03  0.26360811D-02  0.97170912D-02
  0.28412205D-01  0.34238088D-01 -0.41243405D-01 -0.29896900D-01  0.16581215D-01
  0.46419588D-02  0.86157424D+00  0.83543719D+00  0.56358099D+00  0.78471902D+00
  0.76091348D+00  0.51330774D+00  0.10002568D+01  0.96991267D+00  0.65429736D+00
  0.19451310D+00  0.16475347D+00  0.21953464D+00  0.31974800D-01  0.16527160D-01
  0.26795275D-01  0.10248464D-02  0.15734852D-03  0.51649435D-03  0.29705897D-01
 -0.69047751D-04 -0.29636849D-01  0.39677422D-02 -0.35138635D-01 -0.71953682D-01
  0.48769703D-02  0.32855270D-02 -0.81624973D-02  0.18851335D-03 -0.90405070D-02
 -0.10828535D-01 -0.35027659D-03  0.75892351D-03 -0.40864692D-03 -0.77724022D-04
 -0.60412732D-03  0.20828657D-03 -0.51452966D-02  0.36207424D-02  0.29186397D-03
  0.10835802D-01 -0.87058189D-02 -0.13326754D-01  0.46000874D-02 -0.21564084D-02
  0.12451162D-01  0.14865669D-03 -0.18013813D-03 -0.78416805D-05  0.41724063D-03
  0.24638757D-03 -0.65220977D-03 -0.32782850D-03  0.29402683D-03  0.67573482D-03
 -0.92389340D-03  0.41494622D-03 -0.41300323D-01 -0.74486834D-01 -0.10983079D+00
 -0.74173717D-01 -0.10420381D-01  0.63248328D-05  0.11121346D-01 -0.28176267D-01
 -0.17895964D-01  0.60745239D-02 -0.11598469D-01 -0.67826297D-02  0.95636787D-03
 -0.60619250D-04  0.48330267D-03  0.61964022D-02 -0.55548687D-02 -0.64153350D-03
  0.54288383D-02  0.43538142D-02 -0.16627187D-01  0.21840675D-03 -0.13276399D-03
 -0.85642762D-04  0.55909960D-03  0.36393528D-03 -0.34260327D-03  0.35239046D-03
  0.63555071D-03  0.93711915D-03  0.17143477D-02 -0.40617073D-03 -0.11824695D-03
  0.12828962D-01  0.84600145D-02  0.14027069D-01  0.69673622D-02  0.37511154D-02
  0.67040372D-02  0.10539380D-02  0.23407749D-03  0.81639399D-03 -0.12715676D-02
 -0.28164669D-02  0.40880345D-02 -0.65250126D-02  0.44315568D-02 -0.65577290D-02
  0.22072903D-04 -0.24304170D-03  0.22096879D-03 -0.69208760D-03  0.40632224D-03
 -0.69347282D-03
MO    3     MO 0.0        OCC NO =    2.0000000  ORB. ENERGY =    0.000000
  0.43668878D+00  0.81391609D+00  0.13801091D+01  0.20886484D+01  0.26054242D+01
  0.22358416D+01  0.85620855D+00  0.12136606D-05  0.13021782D-04  0.48000739D-04
  0.14035134D-03  0.16913020D-03 -0.20373524D-03  0.51165978D-01  0.84466234D-02
  0.10924714D-02  0.72898731D+00  0.70687247D+00  0.47685200D+00 -0.34007512D+00
 -0.32975847D+00 -0.22245312D+00  0.10788567D+00  0.10461281D+00  0.70571183D-01
  0.16457964D+00 -0.68871997D-01  0.23268582D-01  0.27054225D-01 -0.60044651D-02
  0.24672068D-02  0.86713362D-03 -0.49399017D-04  0.47958237D-04  0.98653745D-03
  0.70586517D-03 -0.16924026D-02  0.33571497D-02 -0.29731181D-01  0.30401135D-01
  0.26257022D-03  0.46199240D-03 -0.72456262D-03  0.15950319D-03 -0.76492711D-02
  0.34319042D-02 -0.10102606D-03  0.14478113D-03 -0.43755069D-04 -0.65763139D-04
 -0.51115868D-03 -0.36097968D-03 -0.43534913D-02 -0.14581796D-02  0.73983518D-03
  0.91682900D-02  0.27527588D-02  0.32642329D-04  0.38921838D-02  0.16217801D-02
 -0.22521479D-02  0.12578004D-03 -0.15241683D-03 -0.50599033D-04 -0.49700621D-04
  0.20847119D-03  0.19949346D-03 -0.18343455D-03  0.24877929D-03 -0.47696363D-04
  0.33253641D-03  0.35109050D-03  0.65577810D-02  0.11827228D-01  0.17439241D-01
  0.11177848D-01  0.11658822D-02 -0.32186901D-04  0.94098911D-02  0.24459932D-02
  0.62335526D-02  0.51397206D-02  0.42426521D-03  0.24208108D-02  0.80919323D-03
 -0.81546426D-04  0.11366152D-03 -0.68374968D-03 -0.39546297D-03  0.10792127D-02
  0.45933990D-02  0.36838095D-02  0.23035362D-02 -0.13071520D-04 -0.45625720D-04
  0.58697241D-04  0.47306024D-03  0.30792959D-03  0.18863287D-03 -0.10715409D-01
 -0.19325681D-01 -0.28495706D-01 -0.22639766D-01 -0.31263869D-02  0.47159822D-05
  0.10854724D-01  0.86895304D-02 -0.70819263D-02  0.58951608D-02  0.40818272D-02
 -0.31539279D-02  0.89174839D-03  0.32061466D-04 -0.11213928D-04  0.32432627D-02
 -0.30088412D-02 -0.23442157D-03 -0.55208840D-02  0.37495883D-02  0.89438813D-02
  0.17375210D-04  0.10017855D-04 -0.27393064D-04 -0.58558283D-03  0.34379366D-03
  0.97508304D-04
MO    4     MO 0.0        OCC NO =    2.0000000  ORB. ENERGY =    0.000000
 -0.25361716D+00 -0.47270068D+00 -0.80153043D+00 -0.12130311D+01 -0.15131606D+01
 -0.12985170D+01 -0.49726301D+00 -0.58213283D-03 -0.62459033D-02 -0.23023576D-01
 -0.67319584D-01 -0.81123372D-01  0.97721699D-01  0.29485777D-01  0.33787739D-01
  0.25919336D-02  0.11134961D+01  0.10797167D+01  0.72837048D+00 -0.83130297D+00
 -0.80608425D+00 -0.54377967D+00  0.93477600D-01  0.90641828D-01  0.61146442D-01
  0.25138818D+00 -0.17324121D+00  0.16679344D-01  0.41324141D-01 -0.16687007D-01
  0.26325595D-02  0.13245085D-02 -0.17244848D-03  0.59857735D-04 -0.19423207D-02
  0.12457372D-02  0.69658350D-03  0.51278987D-02 -0.45413073D-01  0.77929872D-01
 -0.19097806D-02  0.21195692D-02 -0.20978859D-03  0.24363412D-03 -0.11683926D-01
  0.11314205D-01 -0.23409455D-03  0.26352569D-03 -0.29431147D-04 -0.10045031D-03
 -0.78077243D-03 -0.46340555D-03 -0.66497667D-02 -0.37993102D-02  0.80831102D-03
  0.14004160D-01  0.90559446D-02  0.63634438D-03  0.59451399D-02  0.23419860D-02
 -0.30612774D-02  0.19212349D-03 -0.23281001D-03 -0.34607594D-04  0.86486266D-04
  0.31843059D-03  0.52413201D-03  0.36972241D-03  0.37999945D-03 -0.42030923D-03
 -0.62918121D-03  0.53627532D-03  0.24658384D-01  0.44472411D-01  0.65574543D-01
  0.37384616D-01  0.30588739D-02 -0.11347438D-03  0.14373195D-01  0.14032767D-01
  0.19753553D-01  0.78506975D-02  0.31433462D-02  0.68957268D-02  0.12360071D-02
 -0.29101956D-03  0.17264310D-03 -0.43358816D-02  0.13875099D-02  0.29483717D-02
  0.70162153D-02  0.56268572D-02  0.13166272D-01 -0.39642827D-04 -0.12729091D-03
  0.16693374D-03  0.72257874D-03  0.47034892D-03  0.43965917D-03 -0.17252197D-01
 -0.31115048D-01 -0.45879121D-01 -0.39878251D-01 -0.59931182D-02  0.33438308D-04
  0.16580115D-01  0.80044835D-02 -0.10638419D-01  0.90045992D-02  0.46032606D-02
 -0.50252300D-02  0.13621065D-02 -0.12365022D-03  0.14683420D-04  0.31040709D-02
 -0.19973042D-02 -0.11067667D-02 -0.84329079D-02  0.57273314D-02  0.88207978D-02
  0.47693308D-06  0.99639019D-04 -0.10011595D-03 -0.89445206D-03  0.52512971D-03
  0.16111767D-03
MO    5     MO 0.0        OCC NO =    2.0000000  ORB. ENERGY =    0.000000
 -0.42809132D-01 -0.79789183D-01 -0.13529377D+00 -0.20475274D+00 -0.25541290D+00
 -0.21918227D+00 -0.83935164D-01 -0.16066611D-02 -0.17238420D-01 -0.63544061D-01
 -0.18579911D+00 -0.22389696D+00  0.26970761D+00  0.16113178D+00  0.95387318D-01
  0.83230087D-02 -0.37876483D+00 -0.36727448D+00 -0.24776119D+00  0.28491440D+00
  0.27627112D+00  0.18637087D+00  0.59416365D+00  0.57613887D+00  0.38865988D+00
 -0.85511750D-01  0.57507201D-01  0.12630039D+00 -0.14056745D-01  0.47696595D-02
  0.19908113D-01 -0.45054244D-03  0.41593218D-04  0.37811009D-03 -0.48139338D-02
  0.21738283D-01 -0.16924349D-01 -0.17442968D-02  0.15447629D-01 -0.26695259D-01
 -0.28869424D-02  0.67868266D-02 -0.38998842D-02 -0.82874145D-04  0.39743831D-02
 -0.15629198D-02 -0.21813299D-03  0.40896009D-03 -0.19082710D-03  0.34168995D-04
  0.26558615D-03  0.32357784D-03  0.22619727D-02  0.16759609D-02  0.24620931D-02
 -0.47636300D-02 -0.28045470D-02 -0.16579797D-02 -0.20222881D-02 -0.22233358D-02
 -0.57282995D-02 -0.65352380D-04  0.79192235D-04 -0.24098430D-05 -0.81573868D-04
 -0.10831678D-03  0.11480924D-04 -0.32549662D-04 -0.12925993D-03 -0.42513950D-05
  0.27727127D-03 -0.18241845D-03 -0.11715983D-02 -0.21130258D-02 -0.31156554D-02
 -0.23112343D-01 -0.83649450D-02 -0.10557289D-03 -0.48891603D-02  0.35444573D-02
  0.97042832D-02 -0.26704791D-02 -0.53809060D-02  0.14852069D-03 -0.42043796D-03
 -0.51651523D-03  0.24105107D-03  0.10419110D-02 -0.24971293D-02  0.14552183D-02
 -0.23866232D-02 -0.19140216D-02 -0.14173031D-02  0.17900976D-03 -0.23325199D-03
  0.54242229D-04 -0.24579108D-03 -0.15999304D-03 -0.19068921D-03  0.16552775D-01
  0.29853612D-01  0.44019133D-01  0.68264825D-02 -0.46633974D-02 -0.15112954D-03
 -0.56398620D-02 -0.15738847D-01  0.23157795D-01 -0.30629883D-02  0.17306262D-02
  0.54087732D-02 -0.46333170D-03  0.54150093D-03  0.40517229D-03 -0.24212711D-02
 -0.24913979D-03  0.26704108D-02  0.28685228D-02 -0.19481987D-02 -0.97240215D-02
  0.13920479D-03 -0.26262444D-03  0.12341964D-03  0.30425520D-03 -0.17862718D-03
 -0.12306282D-03
END DATA
 TOTAL ENERGY =    -76.464426079647 THE VIRIAL(-V/T)=   2.00589229
