 86
GAUSSIAN              5 MOL ORBITALS    126 PRIMITIVES        3 NUCLEI   B3LYP
  O    1    (CENTRE  1)   0.00000000  0.00000000  0.00815606  CHARGE =  8.0
  H    2    (CENTRE  2)   0.00000000 -1.44255835 -1.09730160  CHARGE =  1.0
  H    3    (CENTRE  3)  -0.09448631  1.44255835 -1.19178791  CHARGE =  1.0
CENTRE ASSIGNMENTS    1  1  1  1  1  1  1  1  1  1  1  1  1  1  1  1  1  1  1  1
CENTRE ASSIGNMENTS    1  1  1  1  1  1  1  1  1  1  1  1  1  1  1  1  1  1  1  1
CENTRE ASSIGNMENTS    1  1  1  1  1  1  1  1  1  1  1  1  1  1  1  1  1  1  1  1
CENTRE ASSIGNMENTS    1  1  1  1  1  1  1  1  1  1  1  1  2  2  2  2  2  2  2  2
CENTRE ASSIGNMENTS    2  2  2  2  2  2  2  2  2  2  2  2  2  2  2  2  2  2  2  3
CENTRE ASSIGNMENTS    3  3  3  3  3  3  3  3  3  3  3  3  3  3  3  3  3  3  3  3
CENTRE ASSIGNMENTS    3  3  3  3  3  3
TYPE ASSIGNMENTS      1  1  1  1  1  1  1  1  1  1  1  1  1  1  1  1  2  2  2  3
TYPE ASSIGNMENTS      3  3  4  4  4  2  3  4  2  3  4  2  3  4  5  6  7  8  9 10
TYPE ASSIGNMENTS      5  6  7  8  9 10  5  6  7  8  9 10 11 12 13 17 14 15 18 19
TYPE ASSIGNMENTS     16 20 11 12 13 17 14 15 18 19 16 20  1  1  1  1  1  1  2  3
TYPE ASSIGNMENTS      4  2  3  4  2  3  4  5  6  7  8  9 10  5  6  7  8  9 10  1
TYPE ASSIGNMENTS      1  1  1  1  1  2  3  4  2  3  4  2  3  4  5  6  7  8  9 10
TYPE ASSIGNMENTS      5  6  7  8  9 10
EXPONENTS  0.1533000D+05 0.2299000D+04 0.5224000D+03 0.1473000D+03 0.4755000D+02
EXPONENTS  0.1676000D+02 0.6207000D+01 0.5224000D+03 0.1473000D+03 0.4755000D+02
EXPONENTS  0.1676000D+02 0.6207000D+01 0.6882000D+00 0.1752000D+01 0.2384000D+00
EXPONENTS  0.7376000D-01 0.3446000D+02 0.7749000D+01 0.2280000D+01 0.3446000D+02
EXPONENTS  0.7749000D+01 0.2280000D+01 0.3446000D+02 0.7749000D+01 0.2280000D+01
EXPONENTS  0.7156000D+00 0.7156000D+00 0.7156000D+00 0.2140000D+00 0.2140000D+00
EXPONENTS  0.2140000D+00 0.5974000D-01 0.5974000D-01 0.5974000D-01 0.2314000D+01
EXPONENTS  0.2314000D+01 0.2314000D+01 0.2314000D+01 0.2314000D+01 0.2314000D+01
EXPONENTS  0.6450000D+00 0.6450000D+00 0.6450000D+00 0.6450000D+00 0.6450000D+00
EXPONENTS  0.6450000D+00 0.2140000D+00 0.2140000D+00 0.2140000D+00 0.2140000D+00
EXPONENTS  0.2140000D+00 0.2140000D+00 0.1428000D+01 0.1428000D+01 0.1428000D+01
EXPONENTS  0.1428000D+01 0.1428000D+01 0.1428000D+01 0.1428000D+01 0.1428000D+01
EXPONENTS  0.1428000D+01 0.1428000D+01 0.5000000D+00 0.5000000D+00 0.5000000D+00
EXPONENTS  0.5000000D+00 0.5000000D+00 0.5000000D+00 0.5000000D+00 0.5000000D+00
EXPONENTS  0.5000000D+00 0.5000000D+00 0.3387000D+02 0.5095000D+01 0.1159000D+01
EXPONENTS  0.3258000D+00 0.1027000D+00 0.2526000D-01 0.1407000D+01 0.1407000D+01
EXPONENTS  0.1407000D+01 0.3880000D+00 0.3880000D+00 0.3880000D+00 0.1020000D+00
EXPONENTS  0.1020000D+00 0.1020000D+00 0.1057000D+01 0.1057000D+01 0.1057000D+01
EXPONENTS  0.1057000D+01 0.1057000D+01 0.1057000D+01 0.2470000D+00 0.2470000D+00
EXPONENTS  0.2470000D+00 0.2470000D+00 0.2470000D+00 0.2470000D+00 0.3387000D+02
EXPONENTS  0.5095000D+01 0.1159000D+01 0.3258000D+00 0.1027000D+00 0.2526000D-01
EXPONENTS  0.1407000D+01 0.1407000D+01 0.1407000D+01 0.3880000D+00 0.3880000D+00
EXPONENTS  0.3880000D+00 0.1020000D+00 0.1020000D+00 0.1020000D+00 0.1057000D+01
EXPONENTS  0.1057000D+01 0.1057000D+01 0.1057000D+01 0.1057000D+01 0.1057000D+01
EXPONENTS  0.2470000D+00 0.2470000D+00 0.2470000D+00 0.2470000D+00 0.2470000D+00
EXPONENTS  0.2470000D+00
MO    1     MO 0.0        OCC NO =    2.0000000  ORB. ENERGY =    0.000000
  0.44692089D-01  0.83298706D-01  0.14124466D+00  0.21375878D+00  0.26664722D+00
  0.22882299D+00  0.87627048D-01  0.90984869D-05  0.97620794D-04  0.35984863D-03
  0.10521763D-02  0.12679236D-02 -0.15273483D-02  0.49909147D-02  0.50273701D-01
  0.90225040D-02  0.73633545D-01  0.71399769D-01  0.48165863D-01  0.35053678D+00
  0.33990276D+00  0.22929640D+00  0.15205982D+01  0.14744688D+01  0.99466791D+00
  0.16333057D-01  0.71487451D-01  0.33027804D+00  0.22670858D-02  0.63699375D-02
  0.39839266D-01  0.55628275D-04  0.73285475D-04  0.75540478D-03  0.42425162D-01
 -0.17023171D-02 -0.40722845D-01  0.13498340D-02 -0.66735261D-02 -0.33707668D-01
  0.59480294D-02  0.61007331D-02 -0.12048762D-01 -0.17398776D-03 -0.15927705D-02
 -0.39791878D-02 -0.72390323D-03  0.13261929D-02 -0.60228964D-03 -0.11169927D-03
 -0.19007723D-04  0.39432331D-03 -0.78318209D-03  0.15122773D-02  0.18926154D-02
  0.43853603D-03 -0.32945782D-02 -0.18257481D-01  0.19110103D-02 -0.12422535D-02
  0.12579634D-01 -0.17836264D-02 -0.18357476D-04  0.64585322D-04  0.68850502D-03
 -0.72883546D-04 -0.10798864D-03 -0.38686011D-03  0.12795598D-03 -0.85767330D-04
 -0.16786549D-02  0.77291192D-04 -0.37315923D-01 -0.67300803D-01 -0.99234995D-01
 -0.73119990D-01 -0.10972477D-01 -0.85903042D-04  0.10023049D-02 -0.32283880D-01
 -0.78632741D-02  0.52045416D-03 -0.14641162D-01 -0.26412641D-02  0.70137809D-04
 -0.18131286D-03  0.93654749D-03  0.58670989D-02 -0.83260753D-02  0.24589764D-02
  0.47980217D-03  0.26932415D-03 -0.13833873D-01  0.13490932D-03 -0.22041050D-03
  0.85501182D-04  0.49883839D-04 -0.28627031D-05  0.27715689D-03 -0.20778025D-01
 -0.37474024D-01 -0.55255427D-01 -0.41663248D-01 -0.78060110D-02 -0.14852335D-03
 -0.23765478D-03  0.21281786D-01  0.34804020D-02 -0.13053363D-03  0.11076131D-01
  0.14683374D-02  0.48720362D-04  0.44044511D-03  0.92561497D-03  0.24906378D-02
 -0.60863713D-02  0.35957336D-02  0.58462839D-03  0.59507178D-04  0.45660220D-02
  0.19447418D-03 -0.33906729D-03  0.14459312D-03  0.82906071D-05  0.13617478D-04
 -0.26787448D-03
MO    2     MO 0.0        OCC NO =    2.0000000  ORB. ENERGY =    0.000000
 -0.76310388D-01 -0.14223002D+00 -0.24117098D+00 -0.36498663D+00 -0.45529206D+00
 -0.39070832D+00 -0.14962053D+00 -0.24754869D-03 -0.26560350D-02 -0.97906451D-02
 -0.28627272D-01 -0.34497255D-01  0.41555599D-01  0.15730733D-01  0.59921139D-02
 -0.61897163D-03 -0.16104914D+00 -0.15616349D+00 -0.10534697D+00  0.13996526D+01
  0.13571922D+01  0.91555384D+00 -0.28467424D+00 -0.27603826D+00 -0.18621378D+00
 -0.35689986D-01  0.29385906D+00 -0.64597545D-01 -0.52110701D-02  0.29884807D-01
 -0.80961139D-02 -0.14345273D-03  0.32268183D-03 -0.14502330D-03 -0.90859687D-02
 -0.13437487D-02  0.10429717D-01 -0.56470186D-02  0.10019446D-01 -0.13137753D+00
 -0.22562650D-02 -0.42043401D-03  0.26766990D-02 -0.90245651D-03  0.21545627D-02
 -0.19475870D-01 -0.31931733D-04 -0.10408162D-03  0.13601336D-03  0.16201796D-04
  0.80053210D-04  0.40353115D-03  0.12934453D-02  0.61468294D-02  0.13864856D-03
 -0.30047536D-02 -0.15138450D-01  0.44694157D-02 -0.87558238D-03 -0.33020379D-02
 -0.48853614D-02  0.15805688D-02  0.73679024D-04  0.79145533D-04 -0.81066848D-04
 -0.11866782D-03 -0.10336112D-02  0.32270619D-03 -0.10236925D-03  0.79617458D-03
 -0.79505645D-04  0.20342458D-03 -0.28230363D-01 -0.50914622D-01 -0.75073580D-01
 -0.54347377D-01 -0.66662681D-02  0.13183694D-03 -0.20939205D-02 -0.11572699D-01
 -0.24160155D-01 -0.10781018D-02 -0.44149468D-02 -0.10220177D-01 -0.14813847D-03
  0.36398576D-03 -0.33846306D-03  0.55119722D-02 -0.14563308D-02 -0.40556414D-02
 -0.99119187D-03 -0.79174443D-03 -0.16968063D-01  0.48914425D-04  0.20319832D-03
 -0.25211275D-03 -0.11023408D-03 -0.52890120D-04 -0.60051945D-03  0.42863514D-01
  0.77306113D-01  0.11398782D+00  0.75044107D-01  0.94145695D-02 -0.12086230D-03
  0.48974791D-03 -0.23157671D-01  0.27402698D-01 -0.37190172D-04 -0.83858968D-02
  0.10781034D-01 -0.12379365D-03  0.26941227D-03  0.30095441D-04 -0.71419622D-02
  0.33766817D-02  0.37652804D-02 -0.84094782D-03  0.10126188D-02 -0.20673743D-01
 -0.18696542D-03 -0.58238828D-04  0.24520425D-03  0.30136518D-04  0.14147751D-04
 -0.71899209D-03
MO    3     MO 0.0        OCC NO =    2.0000000  ORB. ENERGY =    0.000000
  0.48066320D+00  0.89587718D+00  0.15190857D+01  0.22989746D+01  0.28677896D+01
  0.24609901D+01  0.94242848D+00  0.68698539D-03  0.73709025D-02  0.27170534D-01
  0.79445049D-01  0.95735147D-01 -0.11532313D+00 -0.14194741D-01 -0.39259888D-01
 -0.35054626D-02 -0.41761003D+00 -0.40494125D+00 -0.27317098D+00  0.17357102D+00
  0.16830550D+00  0.11353790D+00 -0.26335380D+00 -0.25536460D+00 -0.17226745D+00
 -0.94004939D-01  0.35388387D-01 -0.54468064D-01 -0.15434950D-01  0.31419572D-02
 -0.81250429D-02 -0.49149261D-03  0.18161510D-04 -0.14509564D-03 -0.84736884D-03
 -0.59799767D-02  0.68273456D-02  0.54452295D-03  0.17427733D-01 -0.16476496D-01
  0.14625155D-02 -0.31330540D-02  0.16705385D-02  0.27060423D-03  0.43937559D-02
 -0.16867985D-02  0.17562418D-03 -0.25697450D-03  0.81350316D-04  0.14176328D-04
  0.28910719D-03  0.13564176D-03  0.25039562D-02  0.71815449D-03 -0.61386275D-03
 -0.49563552D-02 -0.11192328D-02  0.16241806D-02 -0.25555133D-02 -0.10352307D-02
  0.21740770D-03  0.13337936D-03  0.95837476D-04  0.18829232D-04 -0.12974336D-03
 -0.14140701D-03 -0.91478209D-04 -0.30206540D-03 -0.14610542D-03  0.34990512D-04
  0.69129547D-03  0.50978597D-04 -0.70061206D-02 -0.12635827D-01 -0.18631520D-01
 -0.45168943D-02  0.14683644D-02  0.66836533D-04 -0.57995151D-02 -0.62166199D-02
 -0.99685589D-02 -0.31529820D-02  0.72731410D-04 -0.27820757D-02 -0.48124558D-03
  0.16961107D-03 -0.20121961D-03  0.19879569D-02 -0.61961225D-03 -0.13683446D-02
 -0.28994478D-02 -0.21236861D-02 -0.66226156D-02 -0.26908899D-04  0.79790042D-04
 -0.52881143D-04 -0.30117538D-03 -0.17728149D-03 -0.13379999D-03  0.30612685D-02
  0.55211238D-02  0.81408938D-02  0.14082348D-01  0.39897394D-02  0.43213466D-04
 -0.52697195D-02 -0.13527503D-04 -0.21817472D-02 -0.27206614D-02 -0.26060162D-02
  0.56247963D-03 -0.44219696D-03 -0.18760498D-03 -0.10418869D-03 -0.35240004D-03
  0.73088498D-03 -0.37848494D-03  0.24829757D-02 -0.20385340D-02 -0.34772904D-04
 -0.94424720D-04  0.89548631D-04  0.48760890D-05  0.24210812D-03 -0.15598292D-03
 -0.10836328D-03
MO    4     MO 0.0        OCC NO =    2.0000000  ORB. ENERGY =    0.000000
  0.32139431D-01  0.59902614D-01  0.10157330D+00  0.15372039D+00  0.19175407D+00
  0.16455352D+00  0.63015256D-01  0.10133962D-02  0.10873076D-01  0.40080207D-01
  0.11719217D+00  0.14122227D+00 -0.17011719D+00 -0.10093087D+00 -0.56286541D-01
 -0.44378454D-02  0.14217814D+01  0.13786497D+01  0.93002895D+00  0.21219153D+00
  0.20575441D+00  0.13880071D+00 -0.28216530D+00 -0.27360543D+00 -0.18457261D+00
  0.32143520D+00  0.44707124D-01 -0.59366500D-01  0.53249467D-01  0.49405245D-02
 -0.10342636D-01  0.17282038D-02  0.89849691D-04 -0.21885404D-03  0.43206203D-02
 -0.12299696D-01  0.79790753D-02 -0.29087868D-02 -0.57549373D-01 -0.17692937D-01
  0.19431257D-02 -0.37426348D-02  0.17995091D-02  0.86958350D-04 -0.15458144D-01
 -0.21356234D-02  0.63215047D-04 -0.16862909D-03  0.10541404D-03  0.84371903D-04
 -0.10795308D-02  0.77059113D-04 -0.84639771D-02  0.13954463D-02 -0.18136318D-02
  0.17141528D-01 -0.36241937D-02  0.93259722D-03  0.82504033D-02 -0.56214521D-03
  0.45082982D-02 -0.10316663D-03 -0.37305892D-03  0.34192738D-04  0.30566473D-04
  0.56589066D-03 -0.14116543D-03  0.18184680D-04  0.55328608D-03  0.38587213D-04
 -0.10988410D-03 -0.34736847D-03 -0.11646505D-01 -0.21004951D-01 -0.30971788D-01
 -0.75122135D-02  0.22918217D-02  0.86400640D-04  0.19774515D-01 -0.99317377D-02
 -0.14140843D-01  0.10739454D-01  0.57849269D-03 -0.33433852D-02  0.16582284D-02
  0.37687402D-03 -0.19133364D-03  0.15754713D-02  0.14225422D-03 -0.17177255D-02
  0.98690400D-02  0.72902696D-02 -0.57842545D-02 -0.64765891D-04  0.15240171D-03
 -0.87635815D-04  0.10207935D-02  0.64348640D-03 -0.57767140D-04 -0.23210811D-02
 -0.41861654D-02 -0.61724985D-02  0.86414903D-02  0.42485604D-02  0.55582184D-04
  0.18115336D-01  0.55728636D-02 -0.72474902D-02  0.10163572D-01 -0.16806395D-02
 -0.65204770D-03  0.15937883D-02 -0.21457858D-03 -0.12937218D-03  0.42786955D-03
  0.44932427D-03 -0.87719382D-03 -0.91247410D-02  0.71767835D-02  0.83809808D-03
 -0.27894087D-04  0.67418184D-04 -0.39524098D-04 -0.93441735D-03  0.60206194D-03
 -0.56068279D-04
MO    5     MO 0.0        OCC NO =    2.0000000  ORB. ENERGY =    0.000000
  0.13925727D+00  0.25955266D+00  0.44010801D+00  0.66605667D+00  0.83085319D+00
  0.71299565D+00  0.27303946D+00 -0.12244608D-02 -0.13137661D-01 -0.48427892D-01
 -0.14160032D+00 -0.17063527D+00  0.20554826D+00  0.14289395D+00  0.65587241D-01
  0.47738437D-02  0.99228472D+00  0.96218239D+00  0.64908256D+00  0.48410442D-02
  0.46941844D-02  0.31666691D-02  0.10620781D+00  0.10298585D+00  0.69473645D-01
  0.22394303D+00  0.20361007D-02  0.19926939D-01  0.37111449D-01  0.94541980D-03
  0.50244897D-02  0.11956025D-02  0.32996001D-04  0.66324181D-04 -0.13718078D-01
  0.15151983D-01 -0.14339050D-02 -0.39471167D-02 -0.39127871D-01  0.20210291D-02
 -0.40290869D-02  0.39834775D-02  0.45609431D-04 -0.65600670D-03 -0.10289254D-01
 -0.64001085D-03 -0.11212346D-03  0.10473131D-03  0.73921510D-05  0.27705170D-04
 -0.72820433D-03 -0.10785409D-03 -0.57118594D-02  0.10048205D-03  0.15862980D-02
  0.11446000D-01 -0.96481697D-03  0.41161625D-02  0.56895780D-02  0.66337081D-03
 -0.88750564D-02  0.86449234D-03 -0.25015335D-03  0.59871239D-05 -0.17193789D-03
  0.40666209D-03 -0.13554731D-03  0.12438284D-03  0.34379794D-03  0.11758594D-03
  0.39143083D-03 -0.25007449D-03  0.11958380D-01  0.21567430D-01  0.31801163D-01
  0.49731775D-02 -0.32090931D-02 -0.82744994D-04  0.13852346D-01  0.12866874D-01
  0.12303736D-01  0.75511286D-02 -0.18118347D-03  0.17045359D-02  0.11607224D-02
 -0.31952259D-03 -0.15175226D-04 -0.10602039D-02  0.28415448D-03  0.77604938D-03
  0.69456813D-02  0.50927959D-02  0.38385917D-02  0.71753432D-04 -0.89794509D-04
  0.18041077D-04  0.71782004D-03  0.44002010D-03 -0.90814075D-04  0.96689335D-02
  0.17438320D-01  0.25712792D-01  0.20654173D-02 -0.33879757D-02 -0.72982546D-04
  0.13503106D-01 -0.97585201D-02  0.10799606D-01  0.69811548D-02  0.96613742D-03
  0.13558549D-02  0.10803148D-02  0.36691919D-03 -0.18963785D-04 -0.26525983D-03
 -0.50782453D-03  0.77308436D-03 -0.63582979D-02  0.51701474D-02 -0.21837254D-02
  0.98550933D-04 -0.12549280D-03  0.26941865D-04 -0.61752468D-03  0.40365094D-03
  0.94516019D-04
END DATA
 TOTAL ENERGY =    -76.465217104367 THE VIRIAL(-V/T)=   2.00665166
