 87
GAUSSIAN              5 MOL ORBITALS    126 PRIMITIVES        3 NUCLEI   B3LYP   B3LYP   B3LYP   B3LYP
  O    1    (CENTRE  1)   0.00000000  0.00000000  0.00815606  CHARGE =  8.0
  H    2    (CENTRE  2)   0.00000000 -1.44255835 -1.09730160  CHARGE =  1.0
  H    3    (CENTRE  3)   0.00000000  1.53704465 -1.19178791  CHARGE =  1.0
CENTRE ASSIGNMENTS    1  1  1  1  1  1  1  1  1  1  1  1  1  1  1  1  1  1  1  1
CENTRE ASSIGNMENTS    1  1  1  1  1  1  1  1  1  1  1  1  1  1  1  1  1  1  1  1
CENTRE ASSIGNMENTS    1  1  1  1  1  1  1  1  1  1  1  1  1  1  1  1  1  1  1  1
CENTRE ASSIGNMENTS    1  1  1  1  1  1  1  1  1  1  1  1  2  2  2  2  2  2  2  2
CENTRE ASSIGNMENTS    2  2  2  2  2  2  2  2  2  2  2  2  2  2  2  2  2  2  2  3
CENTRE ASSIGNMENTS    3  3  3  3  3  3  3  3  3  3  3  3  3  3  3  3  3  3  3  3
CENTRE ASSIGNMENTS    3  3  3  3  3  3
TYPE ASSIGNMENTS      1  1  1  1  1  1  1  1  1  1  1  1  1  1  1  1  2  2  2  3
TYPE ASSIGNMENTS      3  3  4  4  4  2  3  4  2  3  4  2  3  4  5  6  7  8  9 10
TYPE ASSIGNMENTS      5  6  7  8  9 10  5  6  7  8  9 10 11 12 13 17 14 15 18 19
TYPE ASSIGNMENTS     16 20 11 12 13 17 14 15 18 19 16 20  1  1  1  1  1  1  2  3
TYPE ASSIGNMENTS      4  2  3  4  2  3  4  5  6  7  8  9 10  5  6  7  8  9 10  1
TYPE ASSIGNMENTS      1  1  1  1  1  2  3  4  2  3  4  2  3  4  5  6  7  8  9 10
TYPE ASSIGNMENTS      5  6  7  8  9 10
EXPONENTS  0.1533000D+05 0.2299000D+04 0.5224000D+03 0.1473000D+03 0.4755000D+02
EXPONENTS  0.1676000D+02 0.6207000D+01 0.5224000D+03 0.1473000D+03 0.4755000D+02
EXPONENTS  0.1676000D+02 0.6207000D+01 0.6882000D+00 0.1752000D+01 0.2384000D+00
EXPONENTS  0.7376000D-01 0.3446000D+02 0.7749000D+01 0.2280000D+01 0.3446000D+02
EXPONENTS  0.7749000D+01 0.2280000D+01 0.3446000D+02 0.7749000D+01 0.2280000D+01
EXPONENTS  0.7156000D+00 0.7156000D+00 0.7156000D+00 0.2140000D+00 0.2140000D+00
EXPONENTS  0.2140000D+00 0.5974000D-01 0.5974000D-01 0.5974000D-01 0.2314000D+01
EXPONENTS  0.2314000D+01 0.2314000D+01 0.2314000D+01 0.2314000D+01 0.2314000D+01
EXPONENTS  0.6450000D+00 0.6450000D+00 0.6450000D+00 0.6450000D+00 0.6450000D+00
EXPONENTS  0.6450000D+00 0.2140000D+00 0.2140000D+00 0.2140000D+00 0.2140000D+00
EXPONENTS  0.2140000D+00 0.2140000D+00 0.1428000D+01 0.1428000D+01 0.1428000D+01
EXPONENTS  0.1428000D+01 0.1428000D+01 0.1428000D+01 0.1428000D+01 0.1428000D+01
EXPONENTS  0.1428000D+01 0.1428000D+01 0.5000000D+00 0.5000000D+00 0.5000000D+00
EXPONENTS  0.5000000D+00 0.5000000D+00 0.5000000D+00 0.5000000D+00 0.5000000D+00
EXPONENTS  0.5000000D+00 0.5000000D+00 0.3387000D+02 0.5095000D+01 0.1159000D+01
EXPONENTS  0.3258000D+00 0.1027000D+00 0.2526000D-01 0.1407000D+01 0.1407000D+01
EXPONENTS  0.1407000D+01 0.3880000D+00 0.3880000D+00 0.3880000D+00 0.1020000D+00
EXPONENTS  0.1020000D+00 0.1020000D+00 0.1057000D+01 0.1057000D+01 0.1057000D+01
EXPONENTS  0.1057000D+01 0.1057000D+01 0.1057000D+01 0.2470000D+00 0.2470000D+00
EXPONENTS  0.2470000D+00 0.2470000D+00 0.2470000D+00 0.2470000D+00 0.3387000D+02
EXPONENTS  0.5095000D+01 0.1159000D+01 0.3258000D+00 0.1027000D+00 0.2526000D-01
EXPONENTS  0.1407000D+01 0.1407000D+01 0.1407000D+01 0.3880000D+00 0.3880000D+00
EXPONENTS  0.3880000D+00 0.1020000D+00 0.1020000D+00 0.1020000D+00 0.1057000D+01
EXPONENTS  0.1057000D+01 0.1057000D+01 0.1057000D+01 0.1057000D+01 0.1057000D+01
EXPONENTS  0.2470000D+00 0.2470000D+00 0.2470000D+00 0.2470000D+00 0.2470000D+00
EXPONENTS  0.2470000D+00
MO    1     MO 0.0        OCC NO =    2.0000000  ORB. ENERGY =    0.000000
  0.15677602D-01  0.29220472D-01  0.49547417D-01  0.74984748D-01  0.93537562D-01
  0.80269144D-01  0.30738818D-01 -0.83160953D-05 -0.89226246D-04 -0.32890474D-03
 -0.96169817D-03 -0.11588931D-02  0.13960095D-02  0.19482790D-02  0.24249074D-01
  0.38875525D-02 -0.63709777D+00 -0.61777053D+00 -0.41674435D+00  0.12624008D+01
  0.12241041D+01  0.82577340D+00  0.58001005D+00  0.56241465D+00  0.37940160D+00
 -0.14390742D+00  0.26578595D+00  0.12283601D+00 -0.23975729D-01  0.27050902D-01
  0.13573345D-01 -0.78604852D-03  0.30665563D-03  0.26869883D-03  0.17004890D-01
 -0.38251511D-02 -0.13179739D-01  0.21337750D-02  0.24873764D-01 -0.11832942D+00
  0.15111067D-02  0.27646873D-02 -0.42757939D-02 -0.99186563D-05  0.67551093D-02
 -0.18021095D-01 -0.48521903D-03  0.68486011D-03 -0.19964108D-03 -0.77342986D-04
  0.50078237D-03  0.41459642D-03  0.37261143D-02  0.56438284D-02  0.79881021D-03
 -0.77374550D-02 -0.14418981D-01 -0.60018608D-02 -0.34408879D-02 -0.25125041D-02
  0.36054302D-02 -0.37684979D-03  0.19278166D-03  0.15306403D-03  0.36514259D-03
 -0.32121329D-03 -0.96409154D-03  0.10033273D-03 -0.25713170D-03  0.50489946D-03
 -0.11957605D-02  0.32314978D-03 -0.43218477D-01 -0.77946302D-01 -0.11493178D+00
 -0.81450822D-01 -0.10399946D-01  0.70341268D-04 -0.88810398D-02 -0.27745357D-01
 -0.24643364D-01 -0.48395152D-02 -0.11000358D-01 -0.95910495D-02 -0.74873445D-03
  0.28058847D-03  0.24535691D-03  0.75334695D-02 -0.55543591D-02 -0.19791104D-02
 -0.44438050D-02 -0.33092950D-02 -0.21170166D-01  0.76071398D-04  0.88955649D-04
 -0.16502705D-03 -0.45897407D-03 -0.29509160D-03 -0.26561732D-03  0.20634855D-01
  0.37215810D-01  0.54874690D-01  0.34118714D-01  0.34087438D-02 -0.17656451D-03
 -0.75565152D-02 -0.50648716D-02  0.18890427D-01 -0.41571943D-02 -0.31535222D-03
  0.78955808D-02 -0.67009264D-03  0.43717056D-03  0.46220800D-03 -0.34978957D-02
 -0.42173777D-03  0.39196334D-02  0.38865170D-02 -0.29283871D-02 -0.11333615D-01
 -0.42141950D-04 -0.21376792D-03  0.25590987D-03  0.37490871D-03 -0.22056220D-03
 -0.76323199D-03
MO    2     MO 0.0        OCC NO =    2.0000000  ORB. ENERGY =    0.000000
 -0.74377947D-01 -0.13862826D+00 -0.23506370D+00 -0.35574392D+00 -0.44376250D+00
 -0.38081424D+00 -0.14583162D+00  0.62630340D-04  0.67198245D-03  0.24770538D-02
  0.72427601D-02  0.87278781D-02 -0.10513654D-01 -0.13718676D-01  0.39550267D-01
  0.82308009D-02  0.19550214D+00  0.18957131D+00  0.12788369D+00 -0.47251302D+00
 -0.45817868D+00 -0.30908463D+00  0.14301627D+01  0.13867767D+01  0.93551138D+00
  0.44159954D-01 -0.10409620D+00  0.31360066D+00  0.73572793D-02 -0.12635524D-01
  0.39572977D-01  0.24120971D-03 -0.13886729D-03  0.76373423D-03  0.39531760D-01
 -0.19892391D-02 -0.37542521D-01 -0.65477795D-03 -0.76328539D-02  0.39245383D-01
  0.62272280D-02  0.49541799D-02 -0.11181408D-01  0.30436750D-05 -0.20728974D-02
  0.89028494D-02 -0.45756617D-03  0.10858766D-02 -0.62831041D-03  0.23733750D-04
 -0.15367190D-03  0.59371702D-03 -0.11434090D-02 -0.25287564D-02  0.93552596D-03
  0.23743436D-02  0.67228850D-02 -0.17922413D-01  0.10558834D-02  0.86338416D-03
  0.15115835D-01  0.11564150D-03 -0.59157683D-04  0.11421155D-03  0.57198673D-03
  0.98568679D-04  0.63010631D-03 -0.58106118D-03  0.78904369D-04 -0.97274096D-03
 -0.11348990D-02 -0.99162916D-04 -0.15332329D-01 -0.27652488D-01 -0.40773577D-01
 -0.31907719D-01 -0.60555762D-02 -0.14981325D-03  0.27252682D-02 -0.20238858D-01
  0.72996775D-02  0.14850712D-02 -0.10217611D-01  0.35726475D-02  0.22975938D-03
 -0.44550462D-03  0.98423562D-03  0.15863326D-02 -0.60818572D-02  0.44955246D-02
  0.13636422D-02  0.10155023D-02 -0.18282822D-02  0.11536058D-03 -0.40952230D-03
  0.29416172D-03  0.14084245D-03  0.90552883D-04  0.51160969D-03 -0.38695399D-01
 -0.69788745D-01 -0.10290346D+00 -0.71909865D-01 -0.12641444D-01 -0.81813735D-04
  0.23188198D-02  0.26534425D-01 -0.83419725D-02  0.12756918D-02  0.13217128D-01
 -0.36764014D-02  0.20562707D-03  0.37390765D-03  0.69258533D-03  0.48441865D-02
 -0.63729932D-02  0.15288067D-02 -0.11926307D-02  0.89861552D-03  0.11525351D-01
  0.40418305D-03 -0.39910601D-03 -0.50770381D-05 -0.11504585D-03  0.67682518D-04
  0.47636868D-03
MO    3     MO 0.0        OCC NO =    2.0000000  ORB. ENERGY =    0.000000
  0.21892706D+00  0.40804405D+00  0.69189602D+00  0.10471111D+01  0.13061885D+01
  0.11209041D+01  0.42924671D+00 -0.51142998D-03 -0.54873081D-02 -0.20227251D-01
 -0.59143295D-01 -0.71270546D-01  0.85852925D-01  0.78567840D-01  0.35971706D-01
  0.32970799D-02  0.13636367D+01  0.13222689D+01  0.89199480D+00  0.36904977D+00
  0.35785413D+00  0.24140628D+00  0.25099621D+00  0.24338189D+00  0.16418398D+00
  0.30801778D+00  0.77607521D-01  0.52862628D-01  0.51317373D-01  0.79172963D-02
  0.72892160D-02  0.16824492D-02  0.82640320D-04  0.13934221D-03 -0.15317380D-03
  0.59434980D-02 -0.57903242D-02 -0.45671073D-02 -0.53239518D-01 -0.33271681D-01
 -0.97954353D-03  0.26075654D-02 -0.16280219D-02  0.21229778D-04 -0.14458558D-01
 -0.53937045D-02 -0.17728139D-03  0.25885717D-03 -0.81575777D-04  0.16554404D-03
 -0.10718688D-02  0.11607949D-03 -0.79753320D-02  0.16557036D-02  0.11555017D-02
  0.16561159D-01 -0.40113411D-02 -0.53192120D-03  0.73648367D-02 -0.95576972D-03
 -0.29345838D-02  0.80660493D-03 -0.41262765D-03  0.37790894D-04  0.27628568D-04
  0.68752122D-03 -0.35799037D-03 -0.11400101D-04  0.55036173D-03  0.24461769D-03
 -0.71485603D-04 -0.69166605D-03 -0.81753996D-02 -0.14744670D-01 -0.21741007D-01
 -0.23353459D-01 -0.47882164D-02 -0.20245583D-04  0.19008875D-01 -0.34655696D-02
 -0.20494572D-02  0.10358442D-01 -0.38734252D-02 -0.22557160D-02  0.16025826D-02
 -0.10364332D-03  0.72688806D-04  0.22133114D-02 -0.20338691D-02 -0.17944234D-03
  0.95114689D-02  0.70831769D-02 -0.56790168D-02  0.64395394D-04 -0.31519391D-04
 -0.32876003D-04  0.98238280D-03  0.63161067D-03 -0.13253437D-03  0.97454338D-02
  0.17576291D-01  0.25916231D-01  0.10915225D-01 -0.40864494D-03 -0.80709774D-04
  0.16173878D-01 -0.55882647D-02  0.10203649D-01  0.88980108D-02  0.18355720D-03
  0.31925952D-02  0.14342586D-02  0.26423714D-03  0.16920598D-03 -0.11699201D-02
 -0.42583659D-03  0.15957567D-02 -0.83186561D-02  0.62678860D-02 -0.41473591D-02
  0.83677154D-05 -0.11043323D-03  0.10206551D-03 -0.80245028D-03  0.47208878D-03
 -0.23505748D-03
MO    4     MO 0.0        OCC NO =    2.0000000  ORB. ENERGY =    0.000000
  0.40851362D+00  0.76140222D+00  0.12910645D+01  0.19538888D+01  0.24373222D+01
  0.20915851D+01  0.80096597D+00  0.13086771D-02  0.14041247D-01  0.51758680D-01
  0.15133934D+00  0.18237127D+00 -0.21968552D+00 -0.86415861D-01 -0.66735000D-01
 -0.46683486D-02 -0.22278903D+00 -0.21603041D+00 -0.14573284D+00 -0.14366996D+00
 -0.13931154D+00 -0.93978739D-01 -0.11738457D+00 -0.11382355D+00 -0.76784694D-01
 -0.50323506D-01 -0.32958744D-01 -0.20066205D-01 -0.83841593D-02 -0.42914814D-02
 -0.50669571D-02 -0.27487615D-03 -0.53009652D-04 -0.98140987D-04  0.10662673D-01
 -0.12947484D-01  0.22848112D-02  0.74616749D-03  0.86981967D-02  0.12273908D-01
  0.44650898D-02 -0.47593217D-02  0.29423188D-03 -0.34684908D-05  0.23622186D-02
  0.41354669D-02  0.18974719D-03 -0.20559465D-03  0.15847462D-04 -0.27046349D-04
  0.17512040D-03  0.23173462D-03  0.13029984D-02 -0.70271186D-03 -0.15918065D-02
 -0.27057386D-02  0.26627181D-02 -0.25607666D-02 -0.12032565D-02 -0.55458248D-03
  0.73361860D-02 -0.13178197D-03  0.67414518D-04  0.20323094D-04 -0.33735622D-04
 -0.11232624D-03  0.31579978D-03 -0.49503976D-03 -0.89917315D-04 -0.37676907D-03
  0.59624663D-03  0.11300341D-03 -0.86102462D-02 -0.15528934D-01 -0.22897404D-01
  0.53101768D-03  0.36402115D-02  0.60585906D-04 -0.31056429D-02 -0.12023119D-01
 -0.10264634D-01 -0.16923476D-02 -0.24285524D-04 -0.11811146D-02 -0.26182766D-03
  0.21456611D-03 -0.40330430D-04  0.15161715D-02 -0.10678377D-02 -0.44833376D-03
 -0.15539702D-02 -0.11572394D-02 -0.52339067D-02 -0.61166756D-04  0.41831270D-04
  0.19335486D-04 -0.16050030D-03 -0.10319165D-03  0.82246145D-04 -0.14138854D-01
 -0.25500005D-01 -0.37599743D-01 -0.10212856D-01  0.22443548D-02  0.98372195D-04
 -0.26424652D-02  0.12007855D-01 -0.12591137D-01 -0.14537443D-02  0.11865023D-03
 -0.25556949D-02 -0.23432712D-03 -0.37603140D-03 -0.36478912D-04  0.16586059D-02
 -0.43023799D-03 -0.12283679D-02  0.13590902D-02 -0.10240383D-02  0.55083601D-02
 -0.29993259D-04  0.11330691D-03 -0.83313652D-04  0.13110318D-03 -0.77129193D-04
  0.93414031D-04
MO    5     MO 0.0        OCC NO =    2.0000000  ORB. ENERGY =    0.000000
  0.19668831D+00  0.36659466D+00  0.62161277D+00  0.94074483D+00  0.11735050D+01
  0.10070419D+01  0.38564355D+00 -0.10441090D-02 -0.11202605D-01 -0.41294911D-01
 -0.12074390D+00 -0.14550227D+00  0.17527290D+00  0.13163101D+00  0.60408787D-01
  0.50177887D-02 -0.93038279D+00 -0.90215834D+00 -0.60859069D+00 -0.38843380D+00
 -0.37665013D+00 -0.25408595D+00  0.29933528D+00  0.29025453D+00  0.19580399D+00
 -0.21015454D+00 -0.82236428D-01  0.64067180D-01 -0.35012845D-01 -0.85469448D-02
  0.10917827D-01 -0.11479023D-02 -0.10535140D-03  0.20421824D-03 -0.61153686D-02
  0.14012968D-01 -0.78975994D-02  0.31160484D-02  0.36324287D-01  0.37570542D-01
 -0.22311256D-02  0.41093551D-02 -0.18782295D-02 -0.14484664D-04  0.98647926D-02
  0.53153770D-02 -0.69158854D-04  0.18783636D-03 -0.11867751D-03 -0.11294747D-03
  0.73131522D-03 -0.44501236D-04  0.54414138D-02 -0.18011007D-02  0.17243426D-02
 -0.11299357D-01  0.47694377D-02  0.17741676D-03 -0.50248847D-02  0.63386426D-03
 -0.53504444D-02 -0.55033084D-03  0.28152781D-03 -0.30291683D-04 -0.81273689D-04
 -0.46908234D-03  0.19226727D-03 -0.88970514D-04 -0.37550109D-03 -0.10139222D-03
  0.33279158D-03  0.47191028D-03  0.16452245D-01  0.29672301D-01  0.43751790D-01
  0.14714557D-01 -0.20405395D-02 -0.12382922D-03 -0.12969385D-01  0.12546025D-01
  0.17863043D-01 -0.70673636D-02 -0.28568431D-03  0.42950694D-02 -0.10934109D-02
 -0.48903979D-03  0.15500086D-03 -0.19444242D-02 -0.19981274D-03  0.21442370D-02
 -0.64894901D-02 -0.48327137D-02  0.70422340D-02  0.81178981D-04 -0.20318140D-03
  0.12200242D-03 -0.67026066D-03 -0.43093566D-03  0.75444983D-04 -0.45919167D-02
 -0.82817109D-02 -0.12211378D-01 -0.20030224D-01 -0.61269333D-02 -0.38135876D-04
 -0.11035122D-01 -0.20219913D-02  0.32817842D-02 -0.60709395D-02  0.32338930D-02
 -0.88789306D-03 -0.97856669D-03  0.25653795D-03  0.85763420D-04  0.13012764D-02
 -0.15714819D-02  0.27020556D-03  0.56756571D-02 -0.42764566D-02  0.27850453D-02
  0.13323536D-03 -0.12647413D-03 -0.67612319D-05  0.54749621D-03 -0.32209698D-03
  0.25585154D-03
END DATA
 TOTAL ENERGY =    -76.462238882779 THE VIRIAL(-V/T)=   2.00742380
