 88
GAUSSIAN              5 MOL ORBITALS    126 PRIMITIVES        3 NUCLEI   B3LYP   B3LYP   B3LYP   B3LYP
  O    1    (CENTRE  1)   0.00000000  0.00000000  0.00815606  CHARGE =  8.0
  H    2    (CENTRE  2)   0.00000000 -1.44255835 -1.09730160  CHARGE =  1.0
  H    3    (CENTRE  3)   0.00000000  1.44255835 -1.19178791  CHARGE =  1.0
CENTRE ASSIGNMENTS    1  1  1  1  1  1  1  1  1  1  1  1  1  1  1  1  1  1  1  1
CENTRE ASSIGNMENTS    1  1  1  1  1  1  1  1  1  1  1  1  1  1  1  1  1  1  1  1
CENTRE ASSIGNMENTS    1  1  1  1  1  1  1  1  1  1  1  1  1  1  1  1  1  1  1  1
CENTRE ASSIGNMENTS    1  1  1  1  1  1  1  1  1  1  1  1  2  2  2  2  2  2  2  2
CENTRE ASSIGNMENTS    2  2  2  2  2  2  2  2  2  2  2  2  2  2  2  2  2  2  2  3
CENTRE ASSIGNMENTS    3  3  3  3  3  3  3  3  3  3  3  3  3  3  3  3  3  3  3  3
CENTRE ASSIGNMENTS    3  3  3  3  3  3
TYPE ASSIGNMENTS      1  1  1  1  1  1  1  1  1  1  1  1  1  1  1  1  2  2  2  3
TYPE ASSIGNMENTS      3  3  4  4  4  2  3  4  2  3  4  2  3  4  5  6  7  8  9 10
TYPE ASSIGNMENTS      5  6  7  8  9 10  5  6  7  8  9 10 11 12 13 17 14 15 18 19
TYPE ASSIGNMENTS     16 20 11 12 13 17 14 15 18 19 16 20  1  1  1  1  1  1  2  3
TYPE ASSIGNMENTS      4  2  3  4  2  3  4  5  6  7  8  9 10  5  6  7  8  9 10  1
TYPE ASSIGNMENTS      1  1  1  1  1  2  3  4  2  3  4  2  3  4  5  6  7  8  9 10
TYPE ASSIGNMENTS      5  6  7  8  9 10
EXPONENTS  0.1533000D+05 0.2299000D+04 0.5224000D+03 0.1473000D+03 0.4755000D+02
EXPONENTS  0.1676000D+02 0.6207000D+01 0.5224000D+03 0.1473000D+03 0.4755000D+02
EXPONENTS  0.1676000D+02 0.6207000D+01 0.6882000D+00 0.1752000D+01 0.2384000D+00
EXPONENTS  0.7376000D-01 0.3446000D+02 0.7749000D+01 0.2280000D+01 0.3446000D+02
EXPONENTS  0.7749000D+01 0.2280000D+01 0.3446000D+02 0.7749000D+01 0.2280000D+01
EXPONENTS  0.7156000D+00 0.7156000D+00 0.7156000D+00 0.2140000D+00 0.2140000D+00
EXPONENTS  0.2140000D+00 0.5974000D-01 0.5974000D-01 0.5974000D-01 0.2314000D+01
EXPONENTS  0.2314000D+01 0.2314000D+01 0.2314000D+01 0.2314000D+01 0.2314000D+01
EXPONENTS  0.6450000D+00 0.6450000D+00 0.6450000D+00 0.6450000D+00 0.6450000D+00
EXPONENTS  0.6450000D+00 0.2140000D+00 0.2140000D+00 0.2140000D+00 0.2140000D+00
EXPONENTS  0.2140000D+00 0.2140000D+00 0.1428000D+01 0.1428000D+01 0.1428000D+01
EXPONENTS  0.1428000D+01 0.1428000D+01 0.1428000D+01 0.1428000D+01 0.1428000D+01
EXPONENTS  0.1428000D+01 0.1428000D+01 0.5000000D+00 0.5000000D+00 0.5000000D+00
EXPONENTS  0.5000000D+00 0.5000000D+00 0.5000000D+00 0.5000000D+00 0.5000000D+00
EXPONENTS  0.5000000D+00 0.5000000D+00 0.3387000D+02 0.5095000D+01 0.1159000D+01
EXPONENTS  0.3258000D+00 0.1027000D+00 0.2526000D-01 0.1407000D+01 0.1407000D+01
EXPONENTS  0.1407000D+01 0.3880000D+00 0.3880000D+00 0.3880000D+00 0.1020000D+00
EXPONENTS  0.1020000D+00 0.1020000D+00 0.1057000D+01 0.1057000D+01 0.1057000D+01
EXPONENTS  0.1057000D+01 0.1057000D+01 0.1057000D+01 0.2470000D+00 0.2470000D+00
EXPONENTS  0.2470000D+00 0.2470000D+00 0.2470000D+00 0.2470000D+00 0.3387000D+02
EXPONENTS  0.5095000D+01 0.1159000D+01 0.3258000D+00 0.1027000D+00 0.2526000D-01
EXPONENTS  0.1407000D+01 0.1407000D+01 0.1407000D+01 0.3880000D+00 0.3880000D+00
EXPONENTS  0.3880000D+00 0.1020000D+00 0.1020000D+00 0.1020000D+00 0.1057000D+01
EXPONENTS  0.1057000D+01 0.1057000D+01 0.1057000D+01 0.1057000D+01 0.1057000D+01
EXPONENTS  0.2470000D+00 0.2470000D+00 0.2470000D+00 0.2470000D+00 0.2470000D+00
EXPONENTS  0.2470000D+00
MO    1     MO 0.0        OCC NO =    2.0000000  ORB. ENERGY =    0.000000
  0.10077747D+00  0.18783264D+00  0.31849663D+00  0.48201079D+00  0.60127046D+00
  0.51597951D+00  0.19759274D+00  0.54437615D-04  0.58407988D-03  0.21530284D-02
  0.62953288D-02  0.75861774D-02 -0.91383545D-02  0.57658779D-02  0.52899024D-02
  0.87797111D-03 -0.25732685D+00 -0.24952048D+00 -0.16832504D+00  0.14207039D+01
  0.13776049D+01  0.92932411D+00  0.11118537D+00  0.10781241D+00  0.72729616D-01
 -0.58125295D-01  0.29725652D+00  0.22696436D-01 -0.96167226D-02  0.29839634D-01
  0.17876680D-02 -0.31073062D-03  0.32324526D-03  0.40295847D-04  0.45673749D-02
 -0.41194473D-02 -0.44792756D-03  0.58003453D-03  0.10421042D-01 -0.13342763D+00
  0.32855756D-03  0.32068405D-03 -0.64924161D-03  0.37852969D-04  0.27648864D-02
 -0.19155418D-01 -0.19185341D-03  0.22266112D-03 -0.30807714D-04 -0.10999395D-04
  0.19213082D-03  0.53657227D-03  0.15307105D-02  0.63013214D-02  0.38442620D-03
 -0.30830050D-02 -0.15221001D-01 -0.91506745D-03 -0.15091266D-02 -0.36829632D-02
 -0.23821114D-03 -0.36256100D-05  0.66626353D-04  0.10117191D-03  0.95761148D-04
 -0.10263024D-03 -0.99694360D-03  0.81260696D-04 -0.97248816D-04  0.69342788D-03
 -0.36854414D-03  0.62235831D-04 -0.39372865D-01 -0.71010583D-01 -0.10470506D+00
 -0.72570485D-01 -0.87156681D-02  0.11592333D-03 -0.35812124D-02 -0.22657160D-01
 -0.27841292D-01 -0.19467309D-02 -0.83515308D-02 -0.10985357D-01 -0.29978443D-03
  0.34219324D-03 -0.93173702D-04  0.74159154D-02 -0.40241749D-02 -0.33917405D-02
 -0.17895545D-02 -0.13182981D-02 -0.21752386D-01  0.72775794D-04  0.14742060D-03
 -0.22019640D-03 -0.18522108D-03 -0.11500870D-03 -0.49716753D-03  0.32493457D-01
  0.58603287D-01  0.86410512D-01  0.58752720D-01  0.74320452D-02 -0.13585583D-03
 -0.33308890D-02 -0.13747239D-01  0.24361671D-01 -0.18163753D-02 -0.49514324D-02
  0.10162066D-01 -0.28508261D-03  0.30803108D-03  0.26618388D-03 -0.56709294D-02
  0.13855511D-02  0.42853783D-02  0.16354271D-02 -0.13022906D-02 -0.16965373D-01
 -0.13154325D-03 -0.12764703D-03  0.25919029D-03  0.16567977D-03 -0.10732818D-03
 -0.74811640D-03
MO    2     MO 0.0        OCC NO =    2.0000000  ORB. ENERGY =    0.000000
  0.45981487D+00  0.85701932D+00  0.14531967D+01  0.21992587D+01  0.27434018D+01
  0.23542469D+01  0.90155150D+00  0.63060328D-03  0.67659593D-02  0.24940600D-01
  0.72924852D-01  0.87877992D-01 -0.10585835D+00 -0.10488986D-01 -0.29624759D-01
 -0.19532953D-02 -0.58020998D+00 -0.56260851D+00 -0.37953238D+00 -0.34469535D+00
 -0.33423854D+00 -0.22547534D+00 -0.22430251D-01 -0.21749798D-01 -0.14672285D-01
 -0.13105852D+00 -0.73189566D-01 -0.17346221D-02 -0.21683390D-01 -0.77236377D-02
 -0.14418113D-02 -0.70062261D-03 -0.88802728D-04 -0.29498936D-04  0.45621616D-02
 -0.41141351D-02 -0.44802650D-03  0.13078380D-02  0.23496936D-01  0.32775387D-01
  0.22238497D-02 -0.19519994D-02 -0.27185022D-03  0.85349315D-04  0.62341520D-02
  0.54623502D-02  0.99511630D-04 -0.86324918D-04 -0.13186712D-04 -0.24800982D-04
  0.43320867D-03 -0.25764298D-04  0.34513831D-02 -0.14979318D-02 -0.43153550D-03
 -0.69514327D-02  0.41362379D-02 -0.10094533D-02 -0.34027165D-02  0.35755742D-03
  0.23040598D-02 -0.81748761D-05  0.15022636D-03 -0.65864524D-05 -0.46453416D-04
 -0.23140644D-03  0.28178545D-03 -0.38959897D-03 -0.21927262D-03 -0.26202609D-03
  0.52895922D-03  0.14032679D-03  0.25890557D-02  0.46694686D-02  0.68851288D-02
  0.11797680D-01  0.28802533D-02 -0.14710965D-05 -0.80747703D-02 -0.24990363D-02
  0.36859738D-03 -0.43894087D-02  0.77838606D-03  0.12567234D-02 -0.67594159D-03
 -0.74703275D-05  0.39004113D-05  0.98910157D-06 -0.49093012D-03  0.48994102D-03
 -0.40350137D-02 -0.29724443D-02 -0.16015768D-03 -0.30326657D-04 -0.20176574D-04
  0.50503231D-04 -0.41762887D-03 -0.25931687D-03  0.12100671D-03 -0.14468905D-01
 -0.26095265D-01 -0.38477453D-01 -0.18877275D-01 -0.79052469D-03  0.69042329D-04
 -0.75103513D-02  0.98743140D-02 -0.11662757D-01 -0.40954882D-02  0.17916801D-02
 -0.35097059D-02 -0.64279252D-03 -0.20621029D-03 -0.52017358D-04  0.26974850D-02
 -0.11633984D-02 -0.15340865D-02  0.36874937D-02 -0.29363513D-02  0.81818154D-02
  0.15927154D-04  0.65314027D-04 -0.81241182D-04  0.37356792D-03 -0.24199915D-03
  0.17234191D-03
MO    3     MO 0.0        OCC NO =    2.0000000  ORB. ENERGY =    0.000000
  0.18418014D+00  0.34328150D+00  0.58208203D+00  0.88091926D+00  0.10988773D+01
  0.94300024D+00  0.36111899D+00  0.30973772D-04  0.33232825D-03  0.12250245D-02
  0.35818998D-02  0.43163634D-02 -0.51995172D-02  0.18549916D-01 -0.12136900D-02
 -0.17630851D-03  0.16622446D+01  0.16118182D+01  0.10873230D+01  0.94111178D-01
  0.91256186D-01  0.61560884D-01 -0.33890862D-01 -0.32862736D-01 -0.22169007D-01
  0.37546980D+00  0.19496773D-01 -0.69857528D-02  0.62120784D-01  0.19104642D-02
 -0.94128923D-03  0.20072150D-02  0.18572721D-04 -0.18873313D-04 -0.14594463D-02
  0.35661842D-03  0.11028278D-02 -0.37468274D-02 -0.67316415D-01 -0.85827077D-02
 -0.21492024D-04 -0.25455414D-03  0.27604616D-03 -0.24451741D-03 -0.17860234D-01
 -0.11345139D-02  0.21589882D-04 -0.35165247D-04  0.13575365D-04  0.71052378D-04
 -0.12411003D-02  0.48035088D-04 -0.98878737D-02  0.40712560D-03  0.10781823D-03
  0.19915172D-01 -0.88530807D-03  0.76499891D-03  0.97484487D-02 -0.33606873D-03
 -0.10884536D-02  0.23420218D-04 -0.43038376D-03  0.10253430D-04 -0.53500532D-04
  0.66295674D-03 -0.72296368D-04 -0.89012902D-04  0.62819454D-03  0.41536077D-04
  0.24951450D-03 -0.40202247D-03 -0.20005147D-02 -0.36080107D-02 -0.53200096D-02
 -0.37554261D-02 -0.44646707D-03  0.93235506D-05  0.23133424D-01 -0.11525520D-02
 -0.20379206D-02  0.12575225D-01 -0.49760413D-03 -0.91887804D-03  0.19365063D-02
  0.68222076D-05 -0.49418657D-04  0.76459935D-03 -0.42604504D-03 -0.33855431D-03
  0.11559918D-01  0.85157611D-02 -0.23108514D-02  0.71267810D-05  0.96256932D-05
 -0.16752474D-04  0.11964657D-02  0.74291739D-03 -0.62770221D-04  0.27928078D-02
  0.50369440D-02  0.74269709D-02  0.52949532D-02  0.75375085D-03 -0.35508678D-05
  0.21516419D-01 -0.14144386D-02  0.16109503D-02  0.11733172D-01 -0.57152481D-03
  0.64972807D-03  0.18415375D-02  0.12625151D-04 -0.11349718D-04 -0.23118963D-03
  0.61007838D-04  0.17018180D-03 -0.10564308D-01  0.84123581D-02 -0.61813465D-03
 -0.14559881D-04 -0.23241044D-06  0.14792291D-04 -0.10702354D-02  0.69330381D-03
 -0.41870159D-04
MO    4     MO 0.0        OCC NO =    2.0000000  ORB. ENERGY =    0.000000
  0.38471044D-01  0.71703700D-01  0.12158370D+00  0.18400400D+00  0.22953049D+00
  0.19697131D+00  0.75429547D-01 -0.34674125D-03 -0.37203061D-02 -0.13713749D-01
 -0.40098197D-01 -0.48320277D-01  0.58206895D-01  0.39556796D-01 -0.30200901D-01
 -0.74573388D-02 -0.12672973D+00 -0.12288521D+00 -0.82897636D-01  0.52429508D-01
  0.50838987D-01  0.34295680D-01 -0.14617456D+01 -0.14174016D+01 -0.95617073D+00
 -0.28625862D-01  0.12936067D-01 -0.31867570D+00 -0.47360960D-02  0.21793250D-02
 -0.37829960D-01 -0.15303031D-03  0.19448776D-04 -0.71884278D-03 -0.45270093D-01
  0.50005866D-02  0.40269506D-01  0.28565857D-03  0.51322115D-02 -0.39971768D-02
 -0.69754325D-02 -0.49225788D-02  0.11898011D-01  0.18642036D-04  0.13616663D-02
 -0.16234783D-02  0.65657832D-03 -0.12484864D-02  0.59190804D-03 -0.54170418D-05
  0.94621636D-04 -0.25311817D-03  0.75385267D-03  0.22920067D-03 -0.13031728D-02
 -0.15183351D-02 -0.10837688D-02  0.19209529D-01 -0.74322289D-03  0.39616675D-03
 -0.15300011D-01 -0.17855602D-05  0.32812509D-04 -0.35648509D-04 -0.71831402D-03
 -0.50543901D-04 -0.19607318D-03  0.42222586D-03 -0.47893627D-04  0.30301871D-03
  0.17327162D-02  0.30650242D-04  0.29692649D-01  0.53551916D-01  0.78962269D-01
  0.54128697D-01  0.75994390D-02  0.96128621D-04 -0.17636950D-02  0.29599150D-01
  0.35462634D-02 -0.95873666D-03  0.12211724D-01  0.31708126D-04 -0.14763947D-03
  0.17810852D-03 -0.96677102D-03 -0.40456395D-02  0.72347694D-02 -0.31891299D-02
 -0.88132954D-03 -0.64924265D-03  0.86950704D-02 -0.93265738D-04  0.23194978D-03
 -0.13868404D-03 -0.91218689D-04 -0.56640110D-04 -0.44924281D-03  0.33200476D-01
  0.59878426D-01  0.88290704D-01  0.59704199D-01  0.90216497D-02  0.88902865D-04
 -0.16404144D-02 -0.28484433D-01  0.68380613D-02 -0.89453841D-03 -0.12393863D-01
  0.19197867D-02 -0.14039904D-03 -0.25240499D-03 -0.85565135D-03 -0.43475110D-02
  0.64660950D-02 -0.21185840D-02  0.80542407D-03 -0.64135919D-03 -0.10251881D-01
 -0.21193902D-03  0.27155547D-03 -0.59616450D-04  0.81594877D-04 -0.52857565D-04
  0.80928264D-04
MO    5     MO 0.0        OCC NO =    2.0000000  ORB. ENERGY =    0.000000
  0.47904551D-01  0.89286206D-01  0.15139731D+00  0.22912373D+00  0.28581379D+00
  0.24527075D+00  0.93925669D-01 -0.15928544D-02 -0.17090282D-01 -0.62997997D-01
 -0.18420245D+00 -0.22197291D+00  0.26738989D+00  0.17035772D+00  0.98760302D-01
  0.87318760D-02 -0.17858642D+00 -0.17316876D+00 -0.11681862D+00 -0.88462212D-01
 -0.85778588D-01 -0.57865729D-01  0.63451073D+00  0.61526197D+00  0.41505209D+00
 -0.40339314D-01 -0.18241840D-01  0.13405105D+00 -0.66740649D-02 -0.16671689D-02
  0.20192274D-01 -0.21564897D-03 -0.18186084D-04  0.37221789D-03 -0.28625357D-02
  0.19072954D-01 -0.16210419D-01  0.40254755D-03  0.72322675D-02  0.87235447D-02
 -0.29485824D-02  0.70036386D-02 -0.40550562D-02  0.26270194D-04  0.19188483D-02
  0.44682419D-03 -0.31183185D-03  0.51827563D-03 -0.20644378D-03 -0.76336478D-05
  0.13333998D-03 -0.62726408D-04  0.10623226D-02 -0.58620579D-03  0.27764095D-02
 -0.21396245D-02  0.10226578D-02 -0.19130057D-02 -0.10473432D-02  0.73595955D-03
 -0.64162229D-02 -0.25161958D-05  0.46239100D-04 -0.36468992D-05  0.24702830D-04
 -0.71226022D-04 -0.12768736D-04  0.20543903D-04 -0.67491279D-04  0.23709434D-04
 -0.94652392D-04  0.43192051D-04  0.86300682D-02  0.15564683D-01  0.22950117D-01
 -0.71279187D-02 -0.63475635D-02 -0.14368937D-03 -0.24853836D-02  0.90339780D-02
  0.17434182D-01 -0.13510433D-02 -0.37924640D-02  0.31707075D-02 -0.20805225D-03
 -0.53169000D-03  0.34765112D-03 -0.70125183D-03 -0.17060683D-02  0.24073202D-02
 -0.12419619D-02 -0.91490704D-03  0.41843820D-02  0.12618349D-03 -0.22187188D-03
  0.95688389D-04 -0.12854458D-03 -0.79816747D-04  0.57777125D-04  0.26228562D-02
  0.47304292D-02  0.69750150D-02 -0.16410310D-01 -0.75268173D-02 -0.12469449D-03
 -0.23116575D-02 -0.52241385D-02  0.12930119D-01 -0.12605757D-02  0.47889569D-02
  0.14452769D-02 -0.19784909D-03  0.52273798D-03  0.28700495D-03  0.34067464D-03
 -0.22373518D-02  0.18966771D-02  0.11349965D-02 -0.90379774D-03 -0.61481648D-03
  0.15267347D-03 -0.22313744D-03  0.70463969D-04  0.11498279D-03 -0.74486417D-04
  0.70898313D-04
END DATA
 TOTAL ENERGY =    -76.465283522038 THE VIRIAL(-V/T)=   2.00662527
