 00
GAUSSIAN              5 MOL ORBITALS    126 PRIMITIVES        3 NUCLEI   B3LYP   B3LYP   B3LYP   B3LYP
  O    1    (CENTRE  1)   0.09448631  0.00000000  0.00815606  CHARGE =  8.0
  H    2    (CENTRE  2)   0.00000000 -1.44255835 -1.09730160  CHARGE =  1.0
  H    3    (CENTRE  3)   0.00000000  1.44255835 -1.09730160  CHARGE =  1.0
CENTRE ASSIGNMENTS    1  1  1  1  1  1  1  1  1  1  1  1  1  1  1  1  1  1  1  1
CENTRE ASSIGNMENTS    1  1  1  1  1  1  1  1  1  1  1  1  1  1  1  1  1  1  1  1
CENTRE ASSIGNMENTS    1  1  1  1  1  1  1  1  1  1  1  1  1  1  1  1  1  1  1  1
CENTRE ASSIGNMENTS    1  1  1  1  1  1  1  1  1  1  1  1  2  2  2  2  2  2  2  2
CENTRE ASSIGNMENTS    2  2  2  2  2  2  2  2  2  2  2  2  2  2  2  2  2  2  2  3
CENTRE ASSIGNMENTS    3  3  3  3  3  3  3  3  3  3  3  3  3  3  3  3  3  3  3  3
CENTRE ASSIGNMENTS    3  3  3  3  3  3
TYPE ASSIGNMENTS      1  1  1  1  1  1  1  1  1  1  1  1  1  1  1  1  2  2  2  3
TYPE ASSIGNMENTS      3  3  4  4  4  2  3  4  2  3  4  2  3  4  5  6  7  8  9 10
TYPE ASSIGNMENTS      5  6  7  8  9 10  5  6  7  8  9 10 11 12 13 17 14 15 18 19
TYPE ASSIGNMENTS     16 20 11 12 13 17 14 15 18 19 16 20  1  1  1  1  1  1  2  3
TYPE ASSIGNMENTS      4  2  3  4  2  3  4  5  6  7  8  9 10  5  6  7  8  9 10  1
TYPE ASSIGNMENTS      1  1  1  1  1  2  3  4  2  3  4  2  3  4  5  6  7  8  9 10
TYPE ASSIGNMENTS      5  6  7  8  9 10
EXPONENTS  0.1533000D+05 0.2299000D+04 0.5224000D+03 0.1473000D+03 0.4755000D+02
EXPONENTS  0.1676000D+02 0.6207000D+01 0.5224000D+03 0.1473000D+03 0.4755000D+02
EXPONENTS  0.1676000D+02 0.6207000D+01 0.6882000D+00 0.1752000D+01 0.2384000D+00
EXPONENTS  0.7376000D-01 0.3446000D+02 0.7749000D+01 0.2280000D+01 0.3446000D+02
EXPONENTS  0.7749000D+01 0.2280000D+01 0.3446000D+02 0.7749000D+01 0.2280000D+01
EXPONENTS  0.7156000D+00 0.7156000D+00 0.7156000D+00 0.2140000D+00 0.2140000D+00
EXPONENTS  0.2140000D+00 0.5974000D-01 0.5974000D-01 0.5974000D-01 0.2314000D+01
EXPONENTS  0.2314000D+01 0.2314000D+01 0.2314000D+01 0.2314000D+01 0.2314000D+01
EXPONENTS  0.6450000D+00 0.6450000D+00 0.6450000D+00 0.6450000D+00 0.6450000D+00
EXPONENTS  0.6450000D+00 0.2140000D+00 0.2140000D+00 0.2140000D+00 0.2140000D+00
EXPONENTS  0.2140000D+00 0.2140000D+00 0.1428000D+01 0.1428000D+01 0.1428000D+01
EXPONENTS  0.1428000D+01 0.1428000D+01 0.1428000D+01 0.1428000D+01 0.1428000D+01
EXPONENTS  0.1428000D+01 0.1428000D+01 0.5000000D+00 0.5000000D+00 0.5000000D+00
EXPONENTS  0.5000000D+00 0.5000000D+00 0.5000000D+00 0.5000000D+00 0.5000000D+00
EXPONENTS  0.5000000D+00 0.5000000D+00 0.3387000D+02 0.5095000D+01 0.1159000D+01
EXPONENTS  0.3258000D+00 0.1027000D+00 0.2526000D-01 0.1407000D+01 0.1407000D+01
EXPONENTS  0.1407000D+01 0.3880000D+00 0.3880000D+00 0.3880000D+00 0.1020000D+00
EXPONENTS  0.1020000D+00 0.1020000D+00 0.1057000D+01 0.1057000D+01 0.1057000D+01
EXPONENTS  0.1057000D+01 0.1057000D+01 0.1057000D+01 0.2470000D+00 0.2470000D+00
EXPONENTS  0.2470000D+00 0.2470000D+00 0.2470000D+00 0.2470000D+00 0.3387000D+02
EXPONENTS  0.5095000D+01 0.1159000D+01 0.3258000D+00 0.1027000D+00 0.2526000D-01
EXPONENTS  0.1407000D+01 0.1407000D+01 0.1407000D+01 0.3880000D+00 0.3880000D+00
EXPONENTS  0.3880000D+00 0.1020000D+00 0.1020000D+00 0.1020000D+00 0.1057000D+01
EXPONENTS  0.1057000D+01 0.1057000D+01 0.1057000D+01 0.1057000D+01 0.1057000D+01
EXPONENTS  0.2470000D+00 0.2470000D+00 0.2470000D+00 0.2470000D+00 0.2470000D+00
EXPONENTS  0.2470000D+00
MO    1     MO 0.0        OCC NO =    2.0000000  ORB. ENERGY =    0.000000
 -0.79841118D-01 -0.14881072D+00 -0.25232948D+00 -0.38187384D+00 -0.47635751D+00
 -0.40878562D+00 -0.15654317D+00 -0.85978363D-03 -0.92249142D-02 -0.34004771D-01
 -0.99427954D-01 -0.11981552D+00  0.14433049D+00  0.78945815D-01  0.71990469D-03
 -0.44579413D-02 -0.35505940D-01 -0.34428819D-01 -0.23225478D-01 -0.14581802D+00
 -0.14139442D+00 -0.95383843D-01 -0.12234818D+01 -0.11863658D+01 -0.80031534D+00
 -0.72702170D-02 -0.30190716D-01 -0.26755936D+00 -0.56935351D-05 -0.28535687D-02
 -0.30090935D-01  0.31433695D-04 -0.28432815D-04 -0.59485399D-03 -0.44411609D-01
  0.11910834D-01  0.32500775D-01  0.11639604D-02  0.10387074D-01  0.13619175D-01
 -0.73476831D-02 -0.25574870D-02  0.99051700D-02  0.15256304D-03  0.22325772D-02
  0.17848065D-02  0.62893315D-03 -0.11329423D-02  0.50400918D-03 -0.84451007D-05
 -0.70600640D-04 -0.98877462D-04  0.10688903D-02 -0.68133485D-03 -0.99126609D-04
 -0.57555873D-03  0.14842142D-02  0.17155870D-01 -0.26311120D-02  0.55979031D-03
 -0.16858490D-01 -0.15926169D-03  0.89769991D-05 -0.11960250D-04 -0.65101960D-03
  0.16599132D-03  0.85408078D-04  0.26879528D-03 -0.19292232D-03 -0.49527327D-04
  0.16842635D-02 -0.23240973D-04  0.36264110D-01  0.65403817D-01  0.96437889D-01
  0.59050614D-01  0.64721429D-02  0.32171284D-04  0.20108806D-02  0.33949981D-01
  0.12340182D-01  0.73237424D-03  0.11584314D-01  0.24816249D-02  0.98145989D-05
 -0.29957211D-04 -0.82526524D-03 -0.51105747D-02  0.69867255D-02 -0.18761509D-02
  0.15670964D-02  0.91387973D-03  0.12771903D-01 -0.65353426D-04  0.13267664D-03
 -0.67323218D-04  0.19827205D-04  0.31015316D-04 -0.35055717D-03  0.28775707D-01
  0.51898173D-01  0.76523826D-01  0.45214650D-01  0.48046221D-02  0.55724882D-04
  0.15394310D-02 -0.29789621D-01  0.68243202D-02  0.54330335D-03 -0.10064946D-01
  0.26971915D-03  0.65404321D-05 -0.24811614D-04 -0.86365044D-03 -0.37061246D-02
  0.62714684D-02 -0.25653438D-02 -0.12073095D-02  0.55333982D-03 -0.85629677D-02
 -0.53481727D-04  0.16195791D-03 -0.10847618D-03 -0.97539053D-05  0.21878220D-04
  0.46856828D-03
MO    2     MO 0.0        OCC NO =    2.0000000  ORB. ENERGY =    0.000000
  0.33731809D-01  0.62870545D-01  0.10660584D+00  0.16133661D+00  0.20125470D+00
  0.17270648D+00  0.66137405D-01  0.16143524D-04  0.17320941D-03  0.63848251D-03
  0.18668854D-02  0.22496877D-02 -0.27099872D-02  0.23492713D-02  0.34310300D-02
  0.67170244D-03  0.16422577D+01  0.15924375D+01  0.10742490D+01 -0.57604744D+00
 -0.55857225D+00 -0.37680954D+00 -0.19671102D-01 -0.19074352D-01 -0.12867445D-01
  0.37080937D+00 -0.11926705D+00 -0.54137506D-02  0.60900631D-01 -0.11272893D-01
 -0.20750373D-02  0.19491953D-02 -0.11232255D-03 -0.10578510D-03 -0.23795877D-02
 -0.13507622D-03  0.25146639D-02  0.45981729D-02 -0.67195631D-01  0.53801933D-01
 -0.97731190D-03  0.44197501D-03  0.53533689D-03  0.60269337D-03 -0.17312497D-01
  0.70507972D-02 -0.15766813D-03  0.10710891D-03  0.50559222D-04 -0.33361987D-04
 -0.11307048D-02 -0.39061092D-03 -0.97575346D-02 -0.26915824D-02 -0.62133711D-03
  0.20532754D-01  0.58633209D-02  0.26253222D-02  0.87398495D-02  0.22114262D-02
 -0.76131089D-03 -0.62915609D-03 -0.34767279D-03 -0.47248425D-04 -0.14072763D-05
  0.51092890D-03  0.33740073D-03  0.14391710D-03  0.53208949D-03 -0.19565546D-03
 -0.13969527D-03 -0.91812407D-04  0.12393917D-01  0.22352940D-01  0.32959396D-01
  0.22702870D-01  0.25893271D-02 -0.54767741D-04  0.23501501D-01  0.58854234D-02
  0.87189256D-02  0.12666491D-01  0.19429373D-02  0.32714298D-02  0.19113524D-02
 -0.12876716D-03 -0.87898018D-05 -0.16624532D-02  0.75846442D-03  0.90398878D-03
  0.11870095D-01  0.89382709D-02  0.64470202D-02  0.49436205D-04 -0.78455983D-04
  0.29019778D-04  0.11989428D-02  0.74233968D-03  0.16382536D-03 -0.17188679D-01
 -0.31000490D-01 -0.45710205D-01 -0.31955476D-01 -0.39981380D-02  0.38279678D-04
  0.21639061D-01  0.10549892D-01 -0.13071237D-01  0.11919575D-01  0.40592552D-02
 -0.54666034D-02  0.18984180D-02 -0.87594595D-04 -0.16042878D-03  0.38857631D-02
 -0.20671263D-02 -0.18186368D-02 -0.10448773D-01  0.75139743D-02  0.10180189D-01
  0.96334815D-04  0.37218330D-04 -0.13355314D-03 -0.11591487D-02  0.70624399D-03
  0.30237218D-03
MO    3     MO 0.0        OCC NO =    2.0000000  ORB. ENERGY =    0.000000
 -0.28920506D+00 -0.53903067D+00 -0.91400225D+00 -0.13832452D+01 -0.17254894D+01
 -0.14807266D+01 -0.56703962D+00 -0.12348746D-02 -0.13249394D-01 -0.48839761D-01
 -0.14280460D+00 -0.17208648D+00  0.20729640D+00  0.93504503D-01  0.88365612D-01
  0.90715337D-02 -0.16799287D+00 -0.16289657D+00 -0.10988907D+00 -0.46933644D+00
 -0.45509847D+00 -0.30700674D+00  0.94128969D+00  0.91273436D+00  0.61572521D+00
 -0.38901854D-01 -0.97173199D-01  0.20133374D+00 -0.68589538D-02 -0.91846248D-02
  0.27748501D-01 -0.24917050D-03 -0.91515142D-04  0.54730084D-03  0.11836798D-01
  0.13292738D-01 -0.25129536D-01  0.37463756D-02  0.39187551D-02  0.43835292D-01
 -0.43318304D-03  0.72546334D-02 -0.68214504D-02  0.49104629D-03  0.15556509D-02
  0.57446588D-02 -0.46811956D-03  0.81739448D-03 -0.34927492D-03 -0.27181782D-04
  0.19678075D-03 -0.31825146D-03  0.82845469D-03 -0.21929751D-02  0.22214933D-02
 -0.30141608D-02  0.47771589D-02 -0.78143691D-02  0.52879673D-03  0.18017663D-02
  0.11498893D-02 -0.51260687D-03  0.61825089D-04 -0.38495801D-04  0.25045342D-03
 -0.15088463D-03  0.27489829D-03  0.88903187D-04 -0.34590635D-04 -0.15941089D-03
 -0.84026345D-03 -0.74804443D-04  0.86715769D-02  0.15639546D-01  0.23060501D-01
 -0.19447423D-02 -0.49076699D-02 -0.16999464D-03 -0.16551574D-02  0.50399018D-02
  0.20872538D-01 -0.13637042D-02 -0.40659699D-02  0.59467398D-02 -0.23154114D-03
 -0.52904402D-03  0.67236299D-03 -0.20149167D-02 -0.19440633D-02  0.39589800D-02
 -0.98472928D-03 -0.25527163D-03  0.84920253D-02  0.10887687D-03 -0.29613451D-03
  0.18725764D-03 -0.14673421D-03 -0.99229473D-04  0.37899716D-03 -0.15430935D-01
 -0.27830326D-01 -0.41035800D-01 -0.46477799D-01 -0.10274828D-01 -0.94183966D-04
 -0.31725863D-02  0.83508221D-02  0.31189357D-02 -0.19722563D-02  0.89562749D-02
 -0.11725998D-02 -0.24207952D-03  0.35276261D-03  0.54881466D-03  0.25055097D-02
 -0.42462221D-02  0.17407124D-02  0.21427556D-02 -0.14157216D-02  0.50550446D-02
  0.14708766D-03 -0.20188851D-03  0.54800849D-04  0.17915659D-03 -0.12863854D-03
  0.83872403D-06
MO    4     MO 0.0        OCC NO =    2.0000000  ORB. ENERGY =    0.000000
 -0.14217696D+00 -0.26499448D+00 -0.44933538D+00 -0.68002131D+00 -0.84827298D+00
 -0.72794442D+00 -0.27876404D+00 -0.47727874D-03 -0.51208877D-02 -0.18876556D-01
 -0.55193943D-01 -0.66511385D-01  0.80120012D-01  0.32511517D-01  0.29207448D-01
  0.26531255D-02  0.69021808D+00  0.66927936D+00  0.45149190D+00  0.12544479D+01
  0.12163925D+01  0.82057120D+00  0.15558609D+00  0.15086617D+00  0.10177343D+00
  0.15561274D+00  0.25972566D+00  0.32001235D-01  0.25538218D-01  0.24548772D-01
  0.45431191D-02  0.81150862D-03  0.24460274D-03  0.60507415D-04 -0.18458966D-02
  0.51072282D-02 -0.32613315D-02 -0.10013356D-01 -0.28258995D-01 -0.11716348D+00
 -0.13824694D-02  0.22233948D-02 -0.84092547D-03 -0.13124743D-02 -0.71427474D-02
 -0.15354391D-01 -0.15501320D-03  0.18828441D-03 -0.33271209D-04  0.72651785D-04
 -0.45939150D-03  0.85062622D-03 -0.40743697D-02  0.58614094D-02  0.34392081D-03
  0.83560375D-02 -0.12768446D-01  0.43801010D-03  0.38670718D-02 -0.48157821D-02
 -0.14697725D-02  0.13701016D-02 -0.13490573D-03  0.10289203D-03  0.24328585D-04
  0.19582138D-03 -0.73475136D-03  0.15482438D-03  0.20889580D-03  0.42607529D-03
 -0.22781014D-03  0.19993819D-03 -0.30873872D-01 -0.55682300D-01 -0.82103519D-01
 -0.63530012D-01 -0.92389435D-02  0.61047932D-04  0.76695989D-02 -0.15989684D-01
 -0.19897649D-01  0.43253289D-02 -0.78192987D-02 -0.90682986D-02  0.77902707D-03
  0.93692554D-04 -0.97617417D-04  0.60351725D-02 -0.35255766D-02 -0.25095959D-02
  0.32122993D-02  0.20270306D-02 -0.16944661D-01  0.11644382D-03  0.55633099D-04
 -0.17207692D-03  0.44370364D-03  0.25739947D-03 -0.51803869D-03  0.33547602D-01
  0.60504482D-01  0.89213824D-01  0.55498462D-01  0.51064580D-02 -0.14157972D-03
  0.11725401D-01 -0.19801199D-01  0.27554387D-01  0.59518741D-02 -0.52515656D-02
  0.99603554D-02  0.80719418D-03  0.37747446D-03  0.23260400D-03 -0.60470760D-02
  0.26276603D-02  0.34194157D-02 -0.63074856D-02  0.51286950D-02 -0.19264105D-01
  0.14313577D-04 -0.19626872D-03  0.18195515D-03 -0.53036255D-03  0.33600438D-03
 -0.49719111D-03
MO    5     MO 0.0        OCC NO =    2.0000000  ORB. ENERGY =    0.000000
  0.38457389D+00  0.71678250D+00  0.12154055D+01  0.18393869D+01  0.22944902D+01
  0.19690139D+01  0.75402774D+00 -0.73944637D-03 -0.79337743D-02 -0.29245386D-01
 -0.85511793D-01 -0.10304587D+00  0.12412967D+00  0.12180886D+00  0.52759087D-01
  0.50831857D-02 -0.29348609D-01 -0.28458279D-01 -0.19197787D-01  0.13107486D+00
  0.12709853D+00  0.85739915D-01  0.43387217D+00  0.42071006D+00  0.28380852D+00
 -0.70377460D-02  0.27138238D-01  0.93197318D-01 -0.13328192D-02  0.25650543D-02
  0.13283675D-01 -0.57429021D-04  0.25558072D-04  0.25395534D-03  0.18503765D-03
  0.11375318D-01 -0.11560356D-01 -0.10462765D-02  0.72785515D-03 -0.12242188D-01
 -0.78943692D-03  0.37947908D-02 -0.30053539D-02 -0.13713792D-03  0.32850335D-03
 -0.16043510D-02 -0.18587942D-03  0.33520111D-03 -0.14932169D-03  0.75912460D-05
  0.53440063D-04  0.88880306D-04  0.26678830D-03  0.61244745D-03  0.18220342D-02
 -0.11669328D-02 -0.13341505D-02 -0.15493737D-02  0.36656789D-03 -0.50319186D-03
 -0.39167291D-02  0.14315930D-03 -0.54781066D-05  0.10750991D-04 -0.66473997D-04
  0.15719546D-04 -0.76772764D-04 -0.23189302D-03  0.71477348D-06  0.44519792D-04
  0.43131501D-03  0.20891159D-04 -0.26198859D-02 -0.47250720D-02 -0.69671160D-02
 -0.16813572D-01 -0.49794794D-02 -0.64358778D-04 -0.49817161D-03 -0.83173567D-03
  0.49307484D-02 -0.50132783D-03 -0.43181022D-02 -0.87789097D-05 -0.59171409D-04
 -0.28948740D-03  0.21184322D-03  0.15478158D-02 -0.26083503D-02  0.10605345D-02
 -0.72867595D-03 -0.42724439D-03 -0.31733829D-02  0.92109979D-04 -0.13222259D-03
  0.40112610D-04 -0.50995682D-04 -0.39106680D-04 -0.36320441D-04  0.41113907D-02
  0.74150625D-02  0.10933505D-01 -0.43765144D-02 -0.34805558D-02 -0.85530954D-04
 -0.74388644D-04 -0.29079853D-02  0.98889208D-02 -0.33137324D-03  0.29523526D-02
  0.19794887D-02 -0.56228282D-04  0.33871874D-03  0.24634742D-03  0.28536481D-03
 -0.19654104D-02  0.16800456D-02  0.40526585D-03 -0.10315742D-03 -0.61000183D-03
  0.81438586D-04 -0.15854333D-03  0.77104743D-04  0.41940858D-04 -0.30893403D-04
 -0.69758977D-04
END DATA
 TOTAL ENERGY =    -76.466194010053 THE VIRIAL(-V/T)=   2.00602215
