 10
GAUSSIAN              5 MOL ORBITALS    126 PRIMITIVES        3 NUCLEI   B3LYP   B3LYP   B3LYP   B3LYP
  O    1    (CENTRE  1)   0.09448631 -0.09448631  0.00815606  CHARGE =  8.0
  H    2    (CENTRE  2)   0.00000000 -1.44255835 -1.09730160  CHARGE =  1.0
  H    3    (CENTRE  3)   0.00000000  1.44255835 -1.09730160  CHARGE =  1.0
CENTRE ASSIGNMENTS    1  1  1  1  1  1  1  1  1  1  1  1  1  1  1  1  1  1  1  1
CENTRE ASSIGNMENTS    1  1  1  1  1  1  1  1  1  1  1  1  1  1  1  1  1  1  1  1
CENTRE ASSIGNMENTS    1  1  1  1  1  1  1  1  1  1  1  1  1  1  1  1  1  1  1  1
CENTRE ASSIGNMENTS    1  1  1  1  1  1  1  1  1  1  1  1  2  2  2  2  2  2  2  2
CENTRE ASSIGNMENTS    2  2  2  2  2  2  2  2  2  2  2  2  2  2  2  2  2  2  2  3
CENTRE ASSIGNMENTS    3  3  3  3  3  3  3  3  3  3  3  3  3  3  3  3  3  3  3  3
CENTRE ASSIGNMENTS    3  3  3  3  3  3
TYPE ASSIGNMENTS      1  1  1  1  1  1  1  1  1  1  1  1  1  1  1  1  2  2  2  3
TYPE ASSIGNMENTS      3  3  4  4  4  2  3  4  2  3  4  2  3  4  5  6  7  8  9 10
TYPE ASSIGNMENTS      5  6  7  8  9 10  5  6  7  8  9 10 11 12 13 17 14 15 18 19
TYPE ASSIGNMENTS     16 20 11 12 13 17 14 15 18 19 16 20  1  1  1  1  1  1  2  3
TYPE ASSIGNMENTS      4  2  3  4  2  3  4  5  6  7  8  9 10  5  6  7  8  9 10  1
TYPE ASSIGNMENTS      1  1  1  1  1  2  3  4  2  3  4  2  3  4  5  6  7  8  9 10
TYPE ASSIGNMENTS      5  6  7  8  9 10
EXPONENTS  0.1533000D+05 0.2299000D+04 0.5224000D+03 0.1473000D+03 0.4755000D+02
EXPONENTS  0.1676000D+02 0.6207000D+01 0.5224000D+03 0.1473000D+03 0.4755000D+02
EXPONENTS  0.1676000D+02 0.6207000D+01 0.6882000D+00 0.1752000D+01 0.2384000D+00
EXPONENTS  0.7376000D-01 0.3446000D+02 0.7749000D+01 0.2280000D+01 0.3446000D+02
EXPONENTS  0.7749000D+01 0.2280000D+01 0.3446000D+02 0.7749000D+01 0.2280000D+01
EXPONENTS  0.7156000D+00 0.7156000D+00 0.7156000D+00 0.2140000D+00 0.2140000D+00
EXPONENTS  0.2140000D+00 0.5974000D-01 0.5974000D-01 0.5974000D-01 0.2314000D+01
EXPONENTS  0.2314000D+01 0.2314000D+01 0.2314000D+01 0.2314000D+01 0.2314000D+01
EXPONENTS  0.6450000D+00 0.6450000D+00 0.6450000D+00 0.6450000D+00 0.6450000D+00
EXPONENTS  0.6450000D+00 0.2140000D+00 0.2140000D+00 0.2140000D+00 0.2140000D+00
EXPONENTS  0.2140000D+00 0.2140000D+00 0.1428000D+01 0.1428000D+01 0.1428000D+01
EXPONENTS  0.1428000D+01 0.1428000D+01 0.1428000D+01 0.1428000D+01 0.1428000D+01
EXPONENTS  0.1428000D+01 0.1428000D+01 0.5000000D+00 0.5000000D+00 0.5000000D+00
EXPONENTS  0.5000000D+00 0.5000000D+00 0.5000000D+00 0.5000000D+00 0.5000000D+00
EXPONENTS  0.5000000D+00 0.5000000D+00 0.3387000D+02 0.5095000D+01 0.1159000D+01
EXPONENTS  0.3258000D+00 0.1027000D+00 0.2526000D-01 0.1407000D+01 0.1407000D+01
EXPONENTS  0.1407000D+01 0.3880000D+00 0.3880000D+00 0.3880000D+00 0.1020000D+00
EXPONENTS  0.1020000D+00 0.1020000D+00 0.1057000D+01 0.1057000D+01 0.1057000D+01
EXPONENTS  0.1057000D+01 0.1057000D+01 0.1057000D+01 0.2470000D+00 0.2470000D+00
EXPONENTS  0.2470000D+00 0.2470000D+00 0.2470000D+00 0.2470000D+00 0.3387000D+02
EXPONENTS  0.5095000D+01 0.1159000D+01 0.3258000D+00 0.1027000D+00 0.2526000D-01
EXPONENTS  0.1407000D+01 0.1407000D+01 0.1407000D+01 0.3880000D+00 0.3880000D+00
EXPONENTS  0.3880000D+00 0.1020000D+00 0.1020000D+00 0.1020000D+00 0.1057000D+01
EXPONENTS  0.1057000D+01 0.1057000D+01 0.1057000D+01 0.1057000D+01 0.1057000D+01
EXPONENTS  0.2470000D+00 0.2470000D+00 0.2470000D+00 0.2470000D+00 0.2470000D+00
EXPONENTS  0.2470000D+00
MO    1     MO 0.0        OCC NO =    2.0000000  ORB. ENERGY =    0.000000
 -0.60019508D-01 -0.11186649D+00 -0.18968536D+00 -0.28706862D+00 -0.35809548D+00
 -0.30729920D+00 -0.11767927D+00 -0.83685650D-03 -0.89789210D-02 -0.33097994D-01
 -0.96776592D-01 -0.11662050D+00  0.14048175D+00  0.79152143D-01 -0.19118218D-02
 -0.46807007D-02  0.27658723D-01  0.26819657D-01  0.18092382D-01 -0.16966567D+00
 -0.16451862D+00 -0.11098329D+00 -0.12422842D+01 -0.12045978D+01 -0.81261457D+00
  0.71249158D-02 -0.28374540D-01 -0.27008427D+00  0.24147860D-02  0.15369958D-03
 -0.29852311D-01  0.10888223D-03  0.19766441D-04 -0.58842899D-03 -0.44722639D-01
  0.11100503D-01  0.33622136D-01  0.16884770D-02  0.79259018D-02  0.23644611D-01
 -0.71346600D-02 -0.27263567D-02  0.98610167D-02 -0.87236660D-04  0.15083388D-02
 -0.19689053D-02  0.69350558D-03 -0.11485921D-02  0.45508653D-03 -0.77682585D-04
 -0.13508373D-03 -0.11844768D-02  0.69101120D-03  0.14393880D-04 -0.15868534D-03
  0.22404464D-03 -0.12371466D-04  0.17290983D-01 -0.22970782D-02 -0.30810175D-04
 -0.16814927D-01  0.13161710D-03 -0.12834893D-04 -0.26954474D-03 -0.65741443D-03
  0.19768541D-03 -0.32308068D-03  0.17381373D-03 -0.15918073D-03  0.11317149D-02
  0.17984296D-02  0.16519501D-03  0.39179897D-01  0.70662558D-01  0.10419190D+00
  0.65630643D-01  0.64043271D-02  0.23377263D-04  0.34704269D-02  0.39115022D-01
  0.16813617D-01  0.13652515D-02  0.12582264D-01  0.30721476D-02  0.85547021D-04
 -0.10200708D-03 -0.93888273D-03 -0.60480649D-02  0.76252869D-02 -0.15772220D-02
  0.23778438D-02  0.15570029D-02  0.16410912D-01  0.90344090D-04  0.81165683D-04
 -0.17150977D-03  0.42784235D-04  0.28827301D-04 -0.71906743D-03  0.26139304D-01
  0.47143312D-01  0.69512786D-01  0.40298718D-01  0.50263124D-02  0.70393673D-04
  0.20040400D-02 -0.25237375D-01  0.36975537D-02  0.89714549D-03 -0.90423754D-02
 -0.29480422D-03  0.77546505D-04 -0.72674001D-04 -0.80193583D-03 -0.27480318D-02
  0.53033297D-02 -0.25552979D-02 -0.13133532D-02  0.64349036D-03 -0.51681696D-02
 -0.15423010D-03  0.19103154D-03 -0.36801441D-04 -0.66647392D-04  0.68667218D-04
  0.24696457D-03
MO    2     MO 0.0        OCC NO =    2.0000000  ORB. ENERGY =    0.000000
  0.15426564D-01  0.28752578D-01  0.48754037D-01  0.73784051D-01  0.92039788D-01
  0.78983831D-01  0.30246611D-01 -0.66924063D-04 -0.71805127D-03 -0.26468722D-02
 -0.77392990D-02 -0.93262316D-02  0.11234434D-01  0.87866552D-02  0.93472630D-02
  0.12816473D-02  0.17872107D+01  0.17329932D+01  0.11690670D+01 -0.14088777D-01
 -0.13661375D-01 -0.92158828D-02  0.29635852D-01  0.28736808D-01  0.19385681D-01
  0.40325260D+00 -0.35161630D-02  0.49833239D-02  0.66160157D-01 -0.62648468D-03
 -0.72028604D-03  0.21151717D-02 -0.94091913D-05 -0.85630874D-04 -0.21909529D-02
  0.79741600D-03  0.13935369D-02 -0.43355970D-02 -0.73609366D-01  0.11144361D-02
 -0.11256595D-02  0.89871861D-03  0.22694094D-03  0.11158858D-02 -0.18678590D-01
  0.40073566D-03 -0.19490180D-03  0.15616845D-03  0.38733349D-04  0.32084132D-03
 -0.12126338D-02  0.75443045D-04 -0.10574127D-01 -0.11723586D-03 -0.55071162D-03
  0.22080458D-01  0.45403917D-03  0.24807445D-02  0.96419242D-02 -0.10233158D-03
 -0.82860968D-03  0.17055025D-02 -0.36940896D-03  0.25728561D-04  0.10032338D-04
  0.56966576D-03 -0.68900846D-04  0.15601968D-03  0.53856113D-03 -0.82848368D-05
 -0.18611669D-03 -0.11278822D-02 -0.24158338D-02 -0.43570557D-02 -0.64244760D-02
 -0.61346679D-02 -0.11236942D-02 -0.17297706D-04  0.26967339D-01 -0.26903805D-02
 -0.16957800D-02  0.14612688D-01 -0.15333568D-02 -0.10911687D-02  0.22052781D-02
 -0.47008278D-04 -0.60104093D-04  0.13090324D-02 -0.90673976D-03 -0.40229259D-03
  0.12833222D-01  0.10201856D-01 -0.20086203D-02  0.88045362D-04 -0.34741020D-04
 -0.53304342D-04  0.13859704D-02  0.96127828D-03 -0.43521093D-04 -0.28329208D-02
 -0.51092892D-02 -0.75336440D-02 -0.63520775D-02 -0.13199876D-02 -0.16935759D-04
  0.22386797D-01  0.22016411D-02 -0.14173515D-02  0.12217710D-01  0.14394622D-02
 -0.96884552D-03  0.19429451D-02  0.55342551D-04 -0.58291348D-04  0.10843495D-02
 -0.80691535D-03 -0.27743420D-03 -0.11482323D-01  0.79041985D-02  0.16571310D-02
  0.87777210D-04 -0.43568892D-04 -0.44208318D-04 -0.11625450D-02  0.62292450D-03
  0.90425165D-04
MO    3     MO 0.0        OCC NO =    2.0000000  ORB. ENERGY =    0.000000
  0.39477168D-02  0.73578950D-02  0.12476345D-01  0.18881621D-01  0.23553334D-01
  0.20212265D-01  0.77402237D-02 -0.62060975D-03 -0.66587353D-02 -0.24545352D-01
 -0.71769170D-01 -0.86485340D-01  0.10418076D+00  0.63106590D-01  0.43764444D-01
  0.35631658D-02 -0.86038226D-02 -0.83428138D-02 -0.56280129D-02  0.13617058D+01
  0.13203965D+01  0.89073170D+00  0.24944837D+00  0.24188101D+00  0.16317150D+00
 -0.26976357D-02  0.28279821D+00  0.47461120D-01 -0.70106893D-03  0.26883080D-01
  0.47888723D-02 -0.28067203D-04  0.26760468D-03  0.88005699D-04 -0.10825151D-02
  0.87367881D-02 -0.76542730D-02 -0.10717908D-01  0.11312442D-03 -0.12626238D+00
 -0.22650369D-02  0.39557827D-02 -0.16907458D-02 -0.14959072D-02  0.41604108D-03
 -0.17289911D-01 -0.43522865D-03  0.40722544D-03  0.28003213D-04  0.73122752D-04
  0.10079442D-03  0.91791494D-03  0.19409033D-03  0.65013392D-02  0.11081734D-02
 -0.66977726D-03 -0.14395183D-01  0.16681988D-03  0.87506280D-04 -0.51088347D-02
 -0.34913401D-02  0.15691664D-02  0.38363332D-04  0.12657840D-03  0.16533705D-03
 -0.83915901D-04 -0.87547602D-03  0.37069924D-03 -0.31174094D-04  0.49574080D-03
 -0.86671039D-03  0.25526532D-03 -0.32280277D-01 -0.58218808D-01 -0.85843598D-01
 -0.70587394D-01 -0.96717673D-02  0.63384415D-04 -0.24531700D-02 -0.16984878D-01
 -0.23382499D-01 -0.11177942D-02 -0.80887010D-02 -0.10192881D-01 -0.36513259D-04
  0.24149272D-03  0.61245739D-05  0.66994133D-02 -0.32713125D-02 -0.34281007D-02
 -0.18869321D-02 -0.19199496D-02 -0.19523997D-01 -0.29448795D-04  0.21917811D-03
 -0.18972931D-03 -0.36267669D-04 -0.44154873D-04 -0.15248252D-03  0.37211123D-01
  0.67111792D-01  0.98956298D-01  0.58865587D-01  0.57392165D-02 -0.16712764D-03
  0.19607892D-02 -0.21190973D-01  0.27356995D-01  0.66820228D-03 -0.54408556D-02
  0.10229756D-01 -0.55469657D-05  0.36769837D-03  0.31760941D-03 -0.60236630D-02
  0.28853808D-02  0.31382821D-02 -0.13946247D-02  0.14412558D-02 -0.18595417D-01
 -0.10474932D-03 -0.10196925D-03  0.20671857D-03 -0.52379341D-04  0.42838556D-04
 -0.84316937D-03
MO    4     MO 0.0        OCC NO =    2.0000000  ORB. ENERGY =    0.000000
 -0.12026822D+00 -0.22416020D+00 -0.38009511D+00 -0.57523354D+00 -0.71755850D+00
 -0.61577194D+00 -0.23580794D+00 -0.13948952D-02 -0.14966310D-01 -0.55168636D-01
 -0.16130986D+00 -0.19438622D+00  0.23415880D+00  0.13054242D+00  0.97321430D-01
  0.99755316D-02 -0.66914272D-01 -0.64884335D-01 -0.43770589D-01 -0.50656326D+00
 -0.49119596D+00 -0.33135789D+00  0.99575151D+00  0.96554402D+00  0.65135029D+00
 -0.15933271D-01 -0.10520271D+00  0.21505051D+00 -0.30203910D-02 -0.10666892D-01
  0.30659508D-01 -0.12991248D-03 -0.11889121D-03  0.59537154D-03  0.10231889D-01
  0.15924975D-01 -0.26156865D-01  0.43059245D-02  0.58031746D-04  0.45978269D-01
 -0.33134006D-03  0.74311555D-02 -0.70998155D-02  0.42539566D-03  0.44532118D-03
  0.60529640D-02 -0.37271970D-03  0.76696614D-03 -0.39424644D-03 -0.29845600D-04
  0.10301948D-03 -0.36158917D-04  0.24930057D-03 -0.23297165D-02  0.25987059D-02
 -0.18962005D-02  0.51102059D-02 -0.76826835D-02  0.11482988D-02  0.18789438D-02
 -0.11343424D-03 -0.71005895D-03  0.20519283D-04  0.57726614D-04  0.12831042D-03
 -0.71047012D-04  0.17619238D-03 -0.13762486D-03  0.94891622D-05 -0.34937222D-03
 -0.24730641D-03  0.64334487D-05  0.10451106D-01  0.18848999D-01  0.27792839D-01
 -0.26674839D-02 -0.55715485D-02 -0.17825426D-03 -0.14185144D-03  0.56883617D-02
  0.25360897D-01 -0.69029317D-03 -0.48927563D-02  0.65794987D-02 -0.12625578D-03
 -0.59711619D-03  0.72625559D-03 -0.20583670D-02 -0.27635118D-02  0.48218788D-02
 -0.36325565D-03  0.29075285D-03  0.87097100D-02  0.11723311D-03 -0.34381577D-03
  0.22658265D-03 -0.90373014D-04 -0.65132257D-04  0.32822635D-03 -0.15657108D-01
 -0.28238239D-01 -0.41637267D-01 -0.47075043D-01 -0.11665997D-01 -0.11405198D-03
 -0.15074660D-02  0.69107539D-02  0.47948691D-02 -0.11177192D-02  0.95170911D-02
 -0.81745436D-03 -0.12203826D-03  0.52360385D-03  0.51355219D-03  0.28025391D-02
 -0.48426210D-02  0.20400819D-02  0.14320882D-02 -0.82459930D-03  0.51692590D-02
  0.26524801D-03 -0.32446943D-03  0.59221418D-04  0.11876643D-03 -0.90515127D-04
  0.22323772D-03
MO    5     MO 0.0        OCC NO =    2.0000000  ORB. ENERGY =    0.000000
  0.49089006D+00  0.91493835D+00  0.15514065D+01  0.23478888D+01  0.29288063D+01
  0.25133515D+01  0.96248010D+00 -0.10623645D-04 -0.11398474D-03 -0.42016920D-03
 -0.12285501D-02 -0.14804626D-02  0.17833741D-02  0.59193154D-01  0.41633255D-02
  0.48200258D-03 -0.74394695D-01 -0.72137830D-01 -0.48663754D-01 -0.15103694D+00
 -0.14645503D+00 -0.98797697D-01  0.27271388D-01  0.26444073D-01  0.17839015D-01
 -0.16705205D-01 -0.33126063D-01  0.71705764D-02 -0.27400784D-02 -0.36380455D-02
  0.12504483D-02 -0.89317120D-04 -0.52050903D-04  0.22598956D-04 -0.22980513D-02
  0.29503851D-02 -0.65233383D-03  0.15967081D-02  0.34743897D-02  0.16447926D-01
  0.25888772D-03 -0.12245422D-03 -0.13643350D-03  0.19212007D-03  0.74494560D-03
  0.27921709D-02  0.61061948D-04 -0.48450075D-04 -0.12611873D-04 -0.11189134D-04
  0.41173933D-04  0.27143741D-04  0.53780117D-03 -0.61521884D-03  0.59080028D-03
 -0.11774434D-02  0.24410225D-02  0.86112099D-03 -0.43596011D-03 -0.59536598D-03
 -0.26335218D-02 -0.60022312D-03 -0.12554423D-04 -0.35808396D-04 -0.15782738D-03
  0.44088535D-04  0.72968589D-04 -0.33682225D-03 -0.64252678D-05  0.34456598D-04
  0.81030437D-03  0.42303612D-04  0.40337680D-02  0.72750667D-02  0.10727082D-01
  0.46710225D-02 -0.15420531D-03 -0.33151387D-04 -0.90217263D-03  0.10173244D-02
  0.30820476D-02 -0.59995141D-03 -0.84710423D-03  0.37771564D-03 -0.99429183D-04
 -0.18913097D-03 -0.51424350D-04  0.63573352D-03 -0.10280895D-02  0.39235603D-03
 -0.70239465D-03 -0.49318785D-03 -0.16764665D-02  0.40921625D-04 -0.73753191D-04
  0.32831566D-04 -0.66375138D-04 -0.43765925D-04 -0.77456181D-04 -0.37884431D-02
 -0.68326132D-02 -0.10074684D-01 -0.71179210D-02 -0.10536860D-02  0.19541416D-04
 -0.11035344D-02  0.17598878D-02 -0.15899791D-02 -0.59591267D-03  0.95641832D-03
 -0.78491334D-03 -0.83600758D-04 -0.19056099D-04  0.16466515D-05  0.11509854D-02
 -0.10398917D-02 -0.11109363D-03  0.77753840D-03 -0.56721932D-03  0.32501689D-02
  0.15807396D-04  0.75717318D-06 -0.16564569D-04  0.57171056D-04 -0.33336727D-04
  0.80335053D-04
END DATA
 TOTAL ENERGY =    -76.463197796003 THE VIRIAL(-V/T)=   2.00584739
