 10
GAUSSIAN              5 MOL ORBITALS    126 PRIMITIVES        3 NUCLEI   B3LYP   B3LYP   B3LYP   B3LYP
  O    1    (CENTRE  1)  -0.09448631 -0.09448631  0.00815606  CHARGE =  8.0
  H    2    (CENTRE  2)   0.00000000 -1.44255835 -1.09730160  CHARGE =  1.0
  H    3    (CENTRE  3)   0.00000000  1.44255835 -1.09730160  CHARGE =  1.0
CENTRE ASSIGNMENTS    1  1  1  1  1  1  1  1  1  1  1  1  1  1  1  1  1  1  1  1
CENTRE ASSIGNMENTS    1  1  1  1  1  1  1  1  1  1  1  1  1  1  1  1  1  1  1  1
CENTRE ASSIGNMENTS    1  1  1  1  1  1  1  1  1  1  1  1  1  1  1  1  1  1  1  1
CENTRE ASSIGNMENTS    1  1  1  1  1  1  1  1  1  1  1  1  2  2  2  2  2  2  2  2
CENTRE ASSIGNMENTS    2  2  2  2  2  2  2  2  2  2  2  2  2  2  2  2  2  2  2  3
CENTRE ASSIGNMENTS    3  3  3  3  3  3  3  3  3  3  3  3  3  3  3  3  3  3  3  3
CENTRE ASSIGNMENTS    3  3  3  3  3  3
TYPE ASSIGNMENTS      1  1  1  1  1  1  1  1  1  1  1  1  1  1  1  1  2  2  2  3
TYPE ASSIGNMENTS      3  3  4  4  4  2  3  4  2  3  4  2  3  4  5  6  7  8  9 10
TYPE ASSIGNMENTS      5  6  7  8  9 10  5  6  7  8  9 10 11 12 13 17 14 15 18 19
TYPE ASSIGNMENTS     16 20 11 12 13 17 14 15 18 19 16 20  1  1  1  1  1  1  2  3
TYPE ASSIGNMENTS      4  2  3  4  2  3  4  5  6  7  8  9 10  5  6  7  8  9 10  1
TYPE ASSIGNMENTS      1  1  1  1  1  2  3  4  2  3  4  2  3  4  5  6  7  8  9 10
TYPE ASSIGNMENTS      5  6  7  8  9 10
EXPONENTS  0.1533000D+05 0.2299000D+04 0.5224000D+03 0.1473000D+03 0.4755000D+02
EXPONENTS  0.1676000D+02 0.6207000D+01 0.5224000D+03 0.1473000D+03 0.4755000D+02
EXPONENTS  0.1676000D+02 0.6207000D+01 0.6882000D+00 0.1752000D+01 0.2384000D+00
EXPONENTS  0.7376000D-01 0.3446000D+02 0.7749000D+01 0.2280000D+01 0.3446000D+02
EXPONENTS  0.7749000D+01 0.2280000D+01 0.3446000D+02 0.7749000D+01 0.2280000D+01
EXPONENTS  0.7156000D+00 0.7156000D+00 0.7156000D+00 0.2140000D+00 0.2140000D+00
EXPONENTS  0.2140000D+00 0.5974000D-01 0.5974000D-01 0.5974000D-01 0.2314000D+01
EXPONENTS  0.2314000D+01 0.2314000D+01 0.2314000D+01 0.2314000D+01 0.2314000D+01
EXPONENTS  0.6450000D+00 0.6450000D+00 0.6450000D+00 0.6450000D+00 0.6450000D+00
EXPONENTS  0.6450000D+00 0.2140000D+00 0.2140000D+00 0.2140000D+00 0.2140000D+00
EXPONENTS  0.2140000D+00 0.2140000D+00 0.1428000D+01 0.1428000D+01 0.1428000D+01
EXPONENTS  0.1428000D+01 0.1428000D+01 0.1428000D+01 0.1428000D+01 0.1428000D+01
EXPONENTS  0.1428000D+01 0.1428000D+01 0.5000000D+00 0.5000000D+00 0.5000000D+00
EXPONENTS  0.5000000D+00 0.5000000D+00 0.5000000D+00 0.5000000D+00 0.5000000D+00
EXPONENTS  0.5000000D+00 0.5000000D+00 0.3387000D+02 0.5095000D+01 0.1159000D+01
EXPONENTS  0.3258000D+00 0.1027000D+00 0.2526000D-01 0.1407000D+01 0.1407000D+01
EXPONENTS  0.1407000D+01 0.3880000D+00 0.3880000D+00 0.3880000D+00 0.1020000D+00
EXPONENTS  0.1020000D+00 0.1020000D+00 0.1057000D+01 0.1057000D+01 0.1057000D+01
EXPONENTS  0.1057000D+01 0.1057000D+01 0.1057000D+01 0.2470000D+00 0.2470000D+00
EXPONENTS  0.2470000D+00 0.2470000D+00 0.2470000D+00 0.2470000D+00 0.3387000D+02
EXPONENTS  0.5095000D+01 0.1159000D+01 0.3258000D+00 0.1027000D+00 0.2526000D-01
EXPONENTS  0.1407000D+01 0.1407000D+01 0.1407000D+01 0.3880000D+00 0.3880000D+00
EXPONENTS  0.3880000D+00 0.1020000D+00 0.1020000D+00 0.1020000D+00 0.1057000D+01
EXPONENTS  0.1057000D+01 0.1057000D+01 0.1057000D+01 0.1057000D+01 0.1057000D+01
EXPONENTS  0.2470000D+00 0.2470000D+00 0.2470000D+00 0.2470000D+00 0.2470000D+00
EXPONENTS  0.2470000D+00
MO    1     MO 0.0        OCC NO =    2.0000000  ORB. ENERGY =    0.000000
 -0.40291503D-01 -0.75096736D-01 -0.12733707D+00 -0.19271111D+00 -0.24039193D+00
 -0.20629204D+00 -0.78998890D-01  0.50749866D-04  0.54451276D-03  0.20071766D-02
  0.58688665D-02  0.70722695D-02 -0.85192981D-02 -0.94081238D-02  0.48216800D-01
  0.88626327D-02 -0.83790437D-01 -0.81248538D-01 -0.54809784D-01 -0.18504819D+00
 -0.17943450D+00 -0.12104545D+00  0.15491585D+01  0.15021627D+01  0.10133501D+01
 -0.17770779D-01 -0.44238009D-01  0.33631060D+00 -0.16603762D-02 -0.69722868D-02
  0.40534095D-01 -0.96620366D-05 -0.90610028D-04  0.78958816D-03  0.43502512D-01
 -0.21903801D-02 -0.41312132D-01 -0.94982879D-03  0.12583510D-01  0.97066576D-02
  0.59843676D-02  0.58968951D-02 -0.11881263D-01 -0.45367078D-03  0.25612377D-02
  0.56509026D-02 -0.77294558D-03  0.13587536D-02 -0.58580805D-03 -0.72092780D-04
 -0.66418467D-04  0.94327803D-03  0.13168597D-02 -0.15559169D-02  0.12912240D-02
 -0.65104208D-03  0.33480804D-02 -0.18549171D-01 -0.32995369D-02  0.13196703D-02
  0.14675499D-01  0.39823248D-03  0.83086039D-05  0.25631343D-03  0.62843931D-03
  0.15945033D-03  0.40979219D-03 -0.20715002D-03 -0.18437614D-03 -0.11787325D-02
 -0.16781679D-02  0.24259035D-03 -0.26752406D-01 -0.48249067D-01 -0.71143220D-01
 -0.53936052D-01 -0.77565244D-02 -0.11262446D-03  0.78503923D-03 -0.29864523D-01
 -0.54230635D-03  0.29790689D-03 -0.12792358D-01  0.11997883D-02 -0.39519134D-04
 -0.21865827D-03  0.11674373D-02  0.37876148D-02 -0.77174657D-02  0.39298508D-02
  0.10815473D-02  0.26136939D-03 -0.85105432D-02 -0.12694161D-04 -0.25363541D-03
  0.26632957D-03 -0.29793012D-04 -0.21193349D-04  0.79210969D-03 -0.32540496D-01
 -0.58688125D-01 -0.86535606D-01 -0.61845253D-01 -0.10552740D-01 -0.10972831D-03
  0.82417162D-03  0.26462622D-01 -0.24680428D-02  0.40491032D-03  0.12910943D-01
 -0.81752495D-03 -0.25607952D-04  0.30772355D-03  0.92054716D-03  0.41436184D-02
 -0.71477358D-02  0.30041174D-02 -0.10084935D-02  0.41791789D-03  0.80945083D-02
  0.27747349D-03 -0.32358647D-03  0.46112980D-04 -0.27997138D-04  0.57473206D-04
 -0.45325920D-04
MO    2     MO 0.0        OCC NO =    2.0000000  ORB. ENERGY =    0.000000
 -0.67716179D-01 -0.12621182D+00 -0.21400988D+00 -0.32388120D+00 -0.40401627D+00
 -0.34670607D+00 -0.13277000D+00  0.13386013D-03  0.14362314D-02  0.52942194D-02
  0.15479987D-01  0.18654137D-01 -0.22470885D-01 -0.22017495D-01 -0.83160570D-02
 -0.81137507D-03  0.17484155D+01  0.16953749D+01  0.11436899D+01  0.18353859D+00
  0.17797069D+00  0.12005798D+00  0.86167056D-01  0.83553059D-01  0.56364400D-01
  0.39464138D+00  0.38235688D-01  0.19453684D-01  0.64883358D-01  0.37176529D-02
  0.31135676D-02  0.20768840D-02  0.40657433D-04  0.13150480D-03  0.65295458D-02
 -0.19280781D-02 -0.46014677D-02 -0.28290403D-02 -0.71107834D-01 -0.17901146D-01
  0.15943259D-02 -0.44965455D-03 -0.11446713D-02  0.12553740D-02 -0.18133655D-01
 -0.22377187D-02  0.86456912D-04 -0.17806639D-04 -0.68650273D-04  0.29885215D-03
 -0.12058789D-02  0.12232401D-03 -0.10263604D-01  0.82735857D-03  0.50901075D-03
  0.21577222D-01 -0.21602459D-02 -0.40470791D-02  0.92135899D-02 -0.32182980D-03
  0.25200468D-02  0.14555206D-02 -0.36867553D-03  0.15701998D-04  0.86743096D-04
  0.59051119D-03  0.88158419D-05 -0.91609950D-04  0.51551539D-03 -0.55921837D-04
 -0.16861934D-03 -0.11087422D-02 -0.51695424D-02 -0.93234827D-02 -0.13747470D-01
 -0.72488155D-02 -0.21474609D-03  0.29292652D-04  0.26942418D-01 -0.30353057D-02
 -0.31487143D-02  0.14498435D-01 -0.21957252D-03 -0.35821773D-03  0.21626597D-02
  0.11781339D-03  0.13997079D-03 -0.11797879D-03  0.48041821D-04  0.69936974D-04
  0.12914502D-01  0.10294223D-01 -0.14059760D-02 -0.10648624D-03  0.64030278D-04
  0.42455967D-04  0.13584714D-02  0.94401457D-03  0.10191955D-03  0.43586768D-02
  0.78610531D-02  0.11591118D-01  0.95873187D-02  0.17518601D-02 -0.44620906D-05
  0.21844082D-01 -0.19232428D-02  0.35031947D-02  0.11930080D-01 -0.13717789D-02
  0.20035610D-02  0.19034826D-02 -0.26595328D-04  0.15102039D-03 -0.15437437D-02
  0.78150441D-03  0.76223927D-03 -0.11153479D-01  0.76098184D-02 -0.33021557D-02
 -0.89311071D-04  0.23517583D-04  0.65793488D-04 -0.11338990D-02  0.60848741D-03
 -0.20394824D-03
MO    3     MO 0.0        OCC NO =    2.0000000  ORB. ENERGY =    0.000000
  0.34031909D+00  0.63429883D+00  0.10755428D+01  0.16277197D+01  0.20304520D+01
  0.17424299D+01  0.66725808D+00  0.18000531D-03  0.19313389D-02  0.71192788D-02
  0.20816354D-01  0.25084718D-01 -0.30217202D-01  0.20490683D-01  0.58640327D-02
  0.11747218D-02 -0.46289048D-02 -0.44884806D-02 -0.30279025D-02  0.10712702D+01
  0.10387718D+01  0.70074929D+00  0.23287303D+00  0.22580850D+00  0.15232908D+00
 -0.56336088D-03  0.21962220D+00  0.46928080D-01  0.30263095D-03  0.20023798D-01
  0.30911310D-02  0.13369262D-04  0.18888703D-03  0.56136345D-04  0.67156847D-02
  0.35784876D-03 -0.70735335D-02  0.84849804D-02  0.17399047D-02 -0.99721060D-01
  0.50432988D-03  0.13156376D-02 -0.18199674D-02  0.10249902D-02  0.23830829D-03
 -0.11883473D-01 -0.35328663D-03  0.34558910D-03  0.76975291D-05 -0.82230540D-04
 -0.72914526D-04  0.99404783D-03  0.52658013D-04  0.49307518D-02  0.40304069D-03
  0.15061000D-03 -0.10275225D-01 -0.16665135D-02 -0.30858404D-03 -0.45170303D-02
  0.45739147D-03 -0.97651266D-03 -0.86778288D-05  0.12425908D-03  0.16254753D-03
  0.52227722D-04 -0.54648617D-03  0.64578581D-04 -0.26194236D-04  0.17370894D-03
 -0.55222116D-03 -0.13379450D-03 -0.34063577D-01 -0.61435064D-01 -0.90585966D-01
 -0.64172290D-01 -0.70586452D-02  0.71040703D-04  0.25140709D-02 -0.23561120D-01
 -0.26698545D-01  0.96143577D-03 -0.81839302D-02 -0.97762645D-02  0.18026575D-04
  0.26123251D-03  0.10203525D-04  0.73625190D-02 -0.41600261D-02 -0.32024929D-02
  0.19729297D-02  0.19091544D-02 -0.21779472D-01 -0.53117127D-04  0.19053455D-03
 -0.13741742D-03  0.16929056D-04  0.22971892D-04 -0.59478425D-04  0.21783338D-01
  0.39287147D-01  0.57928876D-01  0.40541269D-01  0.54982484D-02 -0.93109184D-04
 -0.11824740D-02 -0.92938024D-02  0.16089154D-01 -0.50174206D-03 -0.36490329D-02
  0.71007225D-02 -0.79277696D-05  0.11795089D-03  0.28807525D-03 -0.36695010D-02
  0.14292820D-02  0.22402190D-02  0.87574469D-03 -0.94804252D-03 -0.11408211D-01
 -0.99535932D-04 -0.29064984D-04  0.12860092D-03  0.48095290D-04 -0.33781750D-04
 -0.68036987D-03
MO    4     MO 0.0        OCC NO =    2.0000000  ORB. ENERGY =    0.000000
 -0.36489444D+00 -0.68010324D+00 -0.11532106D+01 -0.17452616D+01 -0.21770763D+01
 -0.18682554D+01 -0.71544256D+00 -0.13324639D-03 -0.14296463D-02 -0.52699456D-02
 -0.15409012D-01 -0.18568608D-01  0.22367857D-01 -0.30336509D-01  0.10331407D-01
  0.74163482D-03 -0.35037944D+00 -0.33975020D+00 -0.22919348D+00  0.97228007D+00
  0.94278461D+00  0.63599693D+00  0.48803524D-01  0.47323001D-01  0.31923817D-01
 -0.78632013D-01  0.20290932D+00  0.57075717D-02 -0.12750500D-01  0.19589059D-01
 -0.11206341D-02 -0.40879423D-03  0.20789426D-03 -0.34465479D-04  0.14935099D-02
  0.16360559D-03 -0.16571155D-02  0.87524834D-02  0.14941759D-01 -0.92342051D-01
 -0.13171500D-02  0.16352190D-02 -0.31806900D-03  0.88116682D-03  0.34965360D-02
 -0.12764595D-01 -0.31038609D-03  0.24588624D-03  0.64499857D-04 -0.11004987D-03
  0.17847242D-03  0.57450869D-03  0.20872759D-02  0.45011011D-02 -0.26270389D-03
 -0.43591069D-02 -0.10782980D-01  0.62839037D-04 -0.19027209D-02 -0.27203232D-02
  0.72527264D-03 -0.17379466D-02  0.29948116D-04  0.10939635D-03  0.23366239D-03
 -0.96884504D-05 -0.57908840D-03  0.51454321D-03 -0.80155899D-04  0.25089935D-03
 -0.12155304D-02  0.77862609D-04 -0.25229706D-01 -0.45502813D-01 -0.67093871D-01
 -0.47703529D-01 -0.51399258D-02  0.82529747D-04 -0.35284622D-02 -0.13490027D-01
 -0.20252504D-01 -0.22263019D-02 -0.41211283D-02 -0.73298843D-02 -0.42708120D-03
  0.36484716D-03 -0.20345676D-04  0.40922674D-02 -0.11800001D-02 -0.29122673D-02
 -0.14900914D-02 -0.83004441D-03 -0.12081718D-01 -0.54785449D-04  0.22058462D-03
 -0.16579917D-03 -0.26583183D-03 -0.17206697D-03 -0.44516605D-04  0.24759727D-01
  0.44655188D-01  0.65844048D-01  0.42789229D-01  0.52408634D-02 -0.10179238D-03
 -0.57237659D-02 -0.12954948D-01  0.15882575D-01 -0.29370137D-02 -0.45049354D-02
  0.64438856D-02 -0.38970031D-03  0.16772810D-03  0.13856587D-03 -0.44352794D-02
  0.27532486D-02  0.16820308D-02  0.34011084D-02 -0.26322428D-02 -0.13408805D-01
 -0.86839054D-04 -0.31208434D-04  0.11804749D-03  0.27592776D-03 -0.16055595D-03
 -0.57270322D-03
MO    5     MO 0.0        OCC NO =    2.0000000  ORB. ENERGY =    0.000000
 -0.64183127D-01 -0.11962680D+00 -0.20284404D+00 -0.30698289D+00 -0.38293696D+00
 -0.32861688D+00 -0.12584281D+00 -0.17219637D-02 -0.18475540D-01 -0.68104320D-01
 -0.19913304D+00 -0.23996499D+00  0.28906326D+00  0.17016582D+00  0.94657305D-01
  0.74065313D-02  0.13493834D+00  0.13084480D+00  0.88267131D-01  0.42051301D-01
  0.40775617D-01  0.27506990D-01  0.36702745D+00  0.35589316D+00  0.24008343D+00
  0.31027348D-01  0.11496934D-01  0.76177119D-01  0.49845751D-02  0.17368399D-02
  0.13880329D-01  0.17497801D-03  0.13205724D-04  0.26687483D-03 -0.11559612D-01
  0.21303240D-01 -0.97436282D-02 -0.32537841D-03 -0.72314567D-02 -0.10093392D-02
 -0.41393141D-02  0.63044109D-02 -0.21650968D-02  0.31556318D-03 -0.21021934D-02
 -0.25141396D-02 -0.15791955D-03  0.27138365D-03 -0.11346410D-03  0.44202056D-04
 -0.12438611D-03 -0.17424439D-03 -0.11151396D-02  0.64016550D-03  0.25497105D-02
  0.28288682D-02 -0.13308537D-02  0.13012863D-02  0.51655048D-03 -0.58964277D-03
 -0.89504177D-02  0.40392651D-04 -0.41415536D-04 -0.24535993D-04 -0.13237681D-03
  0.26124433D-04 -0.33159767D-03  0.64284375D-04  0.98122176D-04  0.40520565D-03
  0.33284605D-03 -0.23297193D-03  0.13005115D-01  0.23455261D-01  0.34584768D-01
 -0.10849206D-02 -0.55167032D-02 -0.11107033D-03  0.92333981D-03  0.14862420D-01
  0.18756440D-01  0.11429426D-02 -0.17593315D-02  0.26618928D-02  0.19065085D-03
 -0.44744264D-03  0.17950671D-03 -0.15819421D-02 -0.32066714D-03  0.19026092D-02
  0.68164099D-03  0.37804541D-03  0.62039660D-02  0.12196769D-03 -0.16152671D-03
  0.39559020D-04  0.13909509D-03  0.10605121D-03 -0.11220611D-03  0.13038933D-01
  0.23516253D-01  0.34674702D-01  0.22254707D-02 -0.50023810D-02 -0.12438746D-03
  0.71893751D-03 -0.13546612D-01  0.16128363D-01  0.87158613D-03  0.16568551D-02
  0.32142301D-02  0.16471666D-03  0.52973984D-03  0.19675159D-03 -0.12252928D-02
 -0.55686030D-03  0.17821531D-02 -0.64609818D-03  0.24056998D-03 -0.51148603D-02
  0.10321887D-03 -0.21677175D-03  0.11355288D-03 -0.10540531D-03  0.58395872D-04
 -0.43013281D-04
END DATA
 TOTAL ENERGY =    -76.463197796003 THE VIRIAL(-V/T)=   2.00584739
