 11
GAUSSIAN              5 MOL ORBITALS    126 PRIMITIVES        3 NUCLEI   B3LYP   B3LYP   B3LYP
  O    1    (CENTRE  1)   0.00000000  0.09448631  0.00815606  CHARGE =  8.0
  H    2    (CENTRE  2)   0.00000000 -1.44255835 -1.09730160  CHARGE =  1.0
  H    3    (CENTRE  3)   0.00000000  1.44255835 -1.09730160  CHARGE =  1.0
CENTRE ASSIGNMENTS    1  1  1  1  1  1  1  1  1  1  1  1  1  1  1  1  1  1  1  1
CENTRE ASSIGNMENTS    1  1  1  1  1  1  1  1  1  1  1  1  1  1  1  1  1  1  1  1
CENTRE ASSIGNMENTS    1  1  1  1  1  1  1  1  1  1  1  1  1  1  1  1  1  1  1  1
CENTRE ASSIGNMENTS    1  1  1  1  1  1  1  1  1  1  1  1  2  2  2  2  2  2  2  2
CENTRE ASSIGNMENTS    2  2  2  2  2  2  2  2  2  2  2  2  2  2  2  2  2  2  2  3
CENTRE ASSIGNMENTS    3  3  3  3  3  3  3  3  3  3  3  3  3  3  3  3  3  3  3  3
CENTRE ASSIGNMENTS    3  3  3  3  3  3
TYPE ASSIGNMENTS      1  1  1  1  1  1  1  1  1  1  1  1  1  1  1  1  2  2  2  3
TYPE ASSIGNMENTS      3  3  4  4  4  2  3  4  2  3  4  2  3  4  5  6  7  8  9 10
TYPE ASSIGNMENTS      5  6  7  8  9 10  5  6  7  8  9 10 11 12 13 17 14 15 18 19
TYPE ASSIGNMENTS     16 20 11 12 13 17 14 15 18 19 16 20  1  1  1  1  1  1  2  3
TYPE ASSIGNMENTS      4  2  3  4  2  3  4  5  6  7  8  9 10  5  6  7  8  9 10  1
TYPE ASSIGNMENTS      1  1  1  1  1  2  3  4  2  3  4  2  3  4  5  6  7  8  9 10
TYPE ASSIGNMENTS      5  6  7  8  9 10
EXPONENTS  0.1533000D+05 0.2299000D+04 0.5224000D+03 0.1473000D+03 0.4755000D+02
EXPONENTS  0.1676000D+02 0.6207000D+01 0.5224000D+03 0.1473000D+03 0.4755000D+02
EXPONENTS  0.1676000D+02 0.6207000D+01 0.6882000D+00 0.1752000D+01 0.2384000D+00
EXPONENTS  0.7376000D-01 0.3446000D+02 0.7749000D+01 0.2280000D+01 0.3446000D+02
EXPONENTS  0.7749000D+01 0.2280000D+01 0.3446000D+02 0.7749000D+01 0.2280000D+01
EXPONENTS  0.7156000D+00 0.7156000D+00 0.7156000D+00 0.2140000D+00 0.2140000D+00
EXPONENTS  0.2140000D+00 0.5974000D-01 0.5974000D-01 0.5974000D-01 0.2314000D+01
EXPONENTS  0.2314000D+01 0.2314000D+01 0.2314000D+01 0.2314000D+01 0.2314000D+01
EXPONENTS  0.6450000D+00 0.6450000D+00 0.6450000D+00 0.6450000D+00 0.6450000D+00
EXPONENTS  0.6450000D+00 0.2140000D+00 0.2140000D+00 0.2140000D+00 0.2140000D+00
EXPONENTS  0.2140000D+00 0.2140000D+00 0.1428000D+01 0.1428000D+01 0.1428000D+01
EXPONENTS  0.1428000D+01 0.1428000D+01 0.1428000D+01 0.1428000D+01 0.1428000D+01
EXPONENTS  0.1428000D+01 0.1428000D+01 0.5000000D+00 0.5000000D+00 0.5000000D+00
EXPONENTS  0.5000000D+00 0.5000000D+00 0.5000000D+00 0.5000000D+00 0.5000000D+00
EXPONENTS  0.5000000D+00 0.5000000D+00 0.3387000D+02 0.5095000D+01 0.1159000D+01
EXPONENTS  0.3258000D+00 0.1027000D+00 0.2526000D-01 0.1407000D+01 0.1407000D+01
EXPONENTS  0.1407000D+01 0.3880000D+00 0.3880000D+00 0.3880000D+00 0.1020000D+00
EXPONENTS  0.1020000D+00 0.1020000D+00 0.1057000D+01 0.1057000D+01 0.1057000D+01
EXPONENTS  0.1057000D+01 0.1057000D+01 0.1057000D+01 0.2470000D+00 0.2470000D+00
EXPONENTS  0.2470000D+00 0.2470000D+00 0.2470000D+00 0.2470000D+00 0.3387000D+02
EXPONENTS  0.5095000D+01 0.1159000D+01 0.3258000D+00 0.1027000D+00 0.2526000D-01
EXPONENTS  0.1407000D+01 0.1407000D+01 0.1407000D+01 0.3880000D+00 0.3880000D+00
EXPONENTS  0.3880000D+00 0.1020000D+00 0.1020000D+00 0.1020000D+00 0.1057000D+01
EXPONENTS  0.1057000D+01 0.1057000D+01 0.1057000D+01 0.1057000D+01 0.1057000D+01
EXPONENTS  0.2470000D+00 0.2470000D+00 0.2470000D+00 0.2470000D+00 0.2470000D+00
EXPONENTS  0.2470000D+00
MO    1     MO 0.0        OCC NO =    2.0000000  ORB. ENERGY =    0.000000
  0.49676529D+00  0.92588882D+00  0.15699746D+01  0.23759896D+01  0.29638598D+01
  0.25434326D+01  0.97399957D+00  0.36116145D-03  0.38750254D-02  0.14284073D-01
  0.41765792D-01  0.50329811D-01 -0.60627590D-01  0.21098597D-01 -0.24958477D-01
 -0.28153193D-02 -0.62144189D-01 -0.60258959D-01 -0.40650338D-01 -0.14850743D+00
 -0.14400225D+00 -0.97143070D-01 -0.35311026D+00 -0.34239817D+00 -0.23097978D+00
 -0.14026313D-01 -0.29493362D-01 -0.75804269D-01 -0.23045556D-02 -0.26942166D-02
 -0.10357837D-01 -0.73810550D-04 -0.16892848D-04 -0.20484020D-03 -0.81584318D-02
 -0.12326622D-02  0.93910941D-02 -0.15543788D-03  0.25584663D-02  0.10745253D-01
 -0.25845119D-03 -0.23894666D-02  0.26479178D-02  0.38234491D-04  0.65009161D-03
  0.11351869D-02  0.17633450D-03 -0.32463994D-03  0.14830543D-03  0.10998697D-04
  0.42894578D-04 -0.68105588D-04  0.37058153D-03 -0.82086482D-03 -0.25705817D-03
 -0.77450344D-03  0.76673805D-03  0.44556928D-02 -0.33724116D-03  0.16958564D-02
 -0.36845183D-02  0.61842071D-04  0.12833132D-04  0.55100290D-04 -0.20941609D-03
 -0.19856465D-04  0.91784473D-04 -0.22533799D-03 -0.18642932D-04 -0.25708534D-03
  0.85358626D-03 -0.39387564D-04  0.65259030D-02  0.11769735D-01  0.17354467D-01
  0.16754198D-01  0.37360630D-02  0.44756342D-04 -0.78579809D-03  0.39420155D-02
 -0.40970024D-03 -0.42942955D-03  0.32792728D-02  0.45620835D-03 -0.67973302D-04
  0.16348283D-03 -0.18700601D-03 -0.55599999D-03  0.12002388D-02 -0.64423879D-03
 -0.40584371D-03 -0.28025603D-03  0.66990114D-03 -0.91360573D-04  0.11044599D-03
 -0.19085414D-04 -0.40964572D-04 -0.22320837D-04  0.62175824D-04 -0.82463553D-03
 -0.14872641D-02 -0.21929701D-02  0.19082854D-02  0.11418111D-02  0.35891646D-04
 -0.94697047D-03  0.64095501D-03 -0.71264944D-02 -0.51366326D-03 -0.71091350D-03
 -0.27202202D-02 -0.77139342D-04 -0.39926867D-04 -0.34614540D-03  0.16644739D-02
  0.30681548D-04 -0.16951554D-02  0.45461639D-03 -0.36177688D-03  0.56011721D-02
  0.20755843D-05  0.71969554D-04 -0.74045138D-04  0.48636132D-04 -0.34040291D-04
  0.23909746D-03
MO    2     MO 0.0        OCC NO =    2.0000000  ORB. ENERGY =    0.000000
  0.97989420D-01  0.18263617D+00  0.30968529D+00  0.46867575D+00  0.58463605D+00
  0.50170471D+00  0.19212625D+00  0.33970274D-03  0.36447875D-02  0.13435373D-01
  0.39284242D-01  0.47339422D-01 -0.57025350D-01 -0.23204338D-01  0.33916035D-01
  0.76653415D-02  0.63196514D-01  0.61279361D-01  0.41338695D-01 -0.45733635D-01
 -0.44346242D-01 -0.29915713D-01  0.14796081D+01  0.14347222D+01  0.96785510D+00
  0.14263829D-01 -0.26894942D-02  0.32093533D+00  0.23435800D-02  0.27370826D-02
  0.37398828D-01  0.75060429D-04  0.51147660D-04  0.72856088D-03  0.44896580D-01
 -0.49081004D-02 -0.39988480D-01  0.15807000D-03 -0.26017904D-02  0.11639388D-01
  0.65119935D-02  0.49849039D-02 -0.11496897D-01 -0.38881939D-04 -0.66110001D-03
 -0.33726108D-02 -0.79970004D-03  0.13367265D-02 -0.53702642D-03 -0.11184945D-04
 -0.43620938D-04 -0.11635504D-02 -0.37685682D-03  0.52174395D-03  0.11045471D-02
  0.78761858D-03 -0.13088166D-02 -0.18522322D-01  0.34295187D-03 -0.25641523D-03
  0.15208681D-01 -0.62889281D-04 -0.13050444D-04 -0.27459880D-03  0.64488315D-03
  0.20192706D-04 -0.33243893D-03 -0.22454656D-03  0.18958624D-04  0.11562353D-02
 -0.17101029D-02  0.40054538D-04 -0.28294650D-01 -0.51030567D-01 -0.75244541D-01
 -0.50685577D-01 -0.81414598D-02 -0.10498016D-03  0.79910449D-03 -0.25291956D-01
 -0.11940020D-02  0.43670134D-03 -0.11310675D-01  0.30557130D-03  0.69124335D-04
 -0.23483966D-03  0.92002784D-03  0.34214733D-02 -0.65271902D-02  0.31057169D-02
  0.41271611D-03  0.28500177D-03 -0.62036923D-02  0.22733943D-03 -0.28032947D-03
  0.52990038D-04  0.41658250D-04  0.22698809D-04  0.19615424D-03 -0.34683856D-01
 -0.62553762D-01 -0.92235486D-01 -0.65309278D-01 -0.81680671D-02 -0.77914624D-04
  0.96300610D-03  0.35981628D-01 -0.90271555D-02  0.52236143D-03  0.13871612D-01
 -0.13935417D-02  0.78445590D-04  0.97518507D-04  0.10911529D-02  0.56108710D-02
 -0.83991007D-02  0.27882297D-02 -0.46231469D-03  0.36790307D-03  0.14169558D-01
 -0.43218873D-04 -0.17962373D-03  0.22284261D-03 -0.49459717D-04  0.34616716D-04
 -0.76779275D-03
MO    3     MO 0.0        OCC NO =    2.0000000  ORB. ENERGY =    0.000000
  0.44138756D-01  0.82267384D-01  0.13949591D+00  0.21111223D+00  0.26334586D+00
  0.22598993D+00  0.86542137D-01  0.38933370D-03  0.41772951D-02  0.15398296D-01
  0.45023715D-01  0.54255766D-01 -0.65356820D-01 -0.33523931D-01 -0.27675457D-01
 -0.19983071D-02 -0.50475185D+00 -0.48943950D+00 -0.33017300D+00  0.13704840D+01
  0.13289085D+01  0.89647379D+00 -0.10935640D+00 -0.10603892D+00 -0.71533228D-01
 -0.11392549D+00  0.28449266D+00 -0.17407993D-01 -0.18718221D-01  0.27003667D-01
 -0.50816297D-03 -0.59950918D-03  0.27009144D-03 -0.55139391D-05  0.16950568D-02
 -0.56371757D-02  0.39421188D-02 -0.12625083D-02  0.20780553D-01 -0.12774192D+00
  0.20664873D-02 -0.27727658D-02  0.70627842D-03  0.31055084D-03  0.52802192D-02
 -0.17332932D-01  0.37744112D-03 -0.29794047D-03 -0.79500654D-04  0.89334381D-04
  0.34840132D-03  0.91984738D-03  0.30099631D-02  0.65374297D-02 -0.61330066D-03
 -0.62907257D-02 -0.14559971D-01 -0.91725829D-03 -0.27391636D-02 -0.50523187D-02
  0.27571603D-02  0.50229797D-03  0.10423416D-03  0.11973995D-03 -0.16358221D-03
 -0.16127956D-03 -0.84807028D-03 -0.41621914D-03 -0.15142292D-03  0.48885042D-03
  0.90696577D-03 -0.31991641D-03 -0.37437004D-01 -0.67519178D-01 -0.99556989D-01
 -0.62433128D-01 -0.70559348D-02  0.14421231D-03 -0.63824638D-02 -0.21083927D-01
 -0.25439634D-01 -0.34879425D-02 -0.65167854D-02 -0.98999420D-02 -0.55209748D-03
  0.27398085D-03 -0.23920439D-03  0.62787741D-02 -0.35386715D-02 -0.27401026D-02
 -0.32963719D-02 -0.22763150D-02 -0.18758441D-01  0.13303840D-03  0.55296411D-04
 -0.18833481D-03 -0.33272529D-03 -0.18129585D-03 -0.83564014D-03  0.32684286D-01
  0.58947455D-01  0.86917988D-01  0.67407047D-01  0.83940454D-02 -0.86683602D-04
 -0.76915493D-02 -0.17420374D-01  0.26105434D-01 -0.41721114D-02 -0.70103350D-02
  0.10583310D-01 -0.62654652D-03  0.32919074D-03  0.75241969D-04 -0.66470676D-02
  0.27113929D-02  0.39356747D-02  0.36925169D-02 -0.29384493D-02 -0.19609318D-01
  0.53584956D-04 -0.26274304D-03  0.20915808D-03  0.39503577D-03 -0.27648441D-03
 -0.16284612D-03
MO    4     MO 0.0        OCC NO =    2.0000000  ORB. ENERGY =    0.000000
  0.70214925D-02  0.13086907D-01  0.22190691D-01  0.33583251D-01  0.41892458D-01
  0.35949962D-01  0.13766925D-01 -0.15925685D-02 -0.17087215D-01 -0.62986691D-01
 -0.18416939D+00 -0.22193307D+00  0.26734190D+00  0.16550887D+00  0.93393842D-01
  0.79881337D-02 -0.45298940D+00 -0.43924735D+00 -0.29631366D+00  0.20214370D+00
  0.19601139D+00  0.13222813D+00  0.51981663D+00  0.50404727D+00  0.34002731D+00
 -0.10224240D+00  0.40226221D-01  0.11048755D+00 -0.16798662D-01  0.36025852D-02
  0.18012099D-01 -0.53802934D-03  0.44616455D-04  0.34183537D-03 -0.63893368D-02
  0.19917235D-01 -0.13527898D-01 -0.11330377D-02  0.18649501D-01 -0.21068062D-01
 -0.30386180D-02  0.63677933D-02 -0.33291753D-02  0.27870376D-03  0.47387313D-02
 -0.11479700D-02 -0.19298263D-03  0.37745415D-03 -0.18447152D-03  0.80173115D-04
  0.31267267D-03  0.18464820D-03  0.27012905D-02  0.60815787D-03  0.25489776D-02
 -0.56456100D-02 -0.15884327D-02 -0.70987995D-03 -0.24582616D-02 -0.23604090D-03
 -0.69370529D-02  0.45078717D-03  0.93544917D-04  0.13864518D-04 -0.10674636D-03
 -0.14474029D-03  0.14930192D-03 -0.56039399D-04 -0.13589446D-03 -0.19089547D-03
  0.37627847D-03 -0.28710889D-03  0.26034708D-02  0.46954668D-02  0.69234631D-02
 -0.15501398D-01 -0.72773323D-02 -0.10957650D-03 -0.57279404D-02  0.64854481D-02
  0.11189635D-01 -0.31302530D-02 -0.42723202D-02  0.13696536D-02 -0.49547973D-03
 -0.50570016D-03  0.25574967D-03  0.45184389D-03 -0.20825355D-02  0.16306916D-02
 -0.29583281D-02 -0.20428782D-02  0.70035478D-03  0.16172609D-03 -0.24222366D-03
  0.80497572D-04 -0.29860422D-03 -0.16270391D-03 -0.93731087D-04  0.14544541D-01
  0.26231679D-01  0.38678595D-01  0.27795179D-02 -0.50515434D-02 -0.13747592D-03
 -0.69027788D-02 -0.13321043D-01  0.22074999D-01 -0.37442602D-02  0.23714247D-02
  0.42098195D-02 -0.56229400D-03  0.53070554D-03  0.30716194D-03 -0.18765682D-02
 -0.10121822D-02  0.28887504D-02  0.33138482D-02 -0.26371105D-02 -0.74951130D-02
  0.13854758D-03 -0.23686547D-03  0.98317898D-04  0.35452474D-03 -0.24813086D-03
  0.73726963D-05
MO    5     MO 0.0        OCC NO =    2.0000000  ORB. ENERGY =    0.000000
  0.30283425D-01  0.56443324D-01  0.95707588D-01  0.14484326D+00  0.18068055D+00
  0.15505079D+00  0.59376215D-01 -0.31644898D-03 -0.33952899D-02 -0.12515678D-01
 -0.36595108D-01 -0.44098885D-01  0.53121780D-01  0.36741264D-01  0.14884198D-01
  0.11781059D-02  0.16556340D+01  0.16054080D+01  0.10829988D+01  0.46929733D+00
  0.45506055D+00  0.30698116D+00  0.39153434D-01  0.37965660D-01  0.25611410D-01
  0.37368643D+00  0.96734770D-01  0.98271623D-02  0.61397542D-01  0.90126684D-02
  0.29569573D-02  0.19664470D-02  0.91963435D-04  0.56348502D-04 -0.32513378D-02
  0.38719269D-02 -0.62058908D-03  0.41411471D-02 -0.68162186D-01 -0.44749864D-01
 -0.45963963D-03  0.61696259D-03 -0.15732297D-03 -0.10186362D-02 -0.17319620D-01
 -0.54270241D-02  0.99412937D-04 -0.50768594D-04 -0.48644342D-04 -0.29302525D-03
 -0.11427894D-02  0.37281085D-03 -0.98729646D-02  0.21087296D-02  0.45862614D-03
  0.20634177D-01 -0.47947520D-02  0.40038179D-03  0.89847165D-02 -0.15314370D-02
 -0.17762602D-02 -0.16475850D-02 -0.34189793D-03  0.52848210D-04 -0.11155349D-03
  0.52901225D-03 -0.20156629D-03 -0.14211204D-03  0.49668155D-03  0.43021662D-04
  0.47677252D-03  0.10493562D-02 -0.93760953D-02 -0.16910174D-01 -0.24934042D-01
 -0.20711630D-01 -0.36912531D-02  0.19672321D-04  0.20935087D-01 -0.35400186D-02
 -0.46640259D-02  0.11440782D-01 -0.26008721D-02 -0.26379839D-02  0.18109321D-02
 -0.39733371D-04 -0.45088986D-04  0.18863626D-02 -0.13544262D-02 -0.53193642D-03
  0.10812413D-01  0.74665292D-02 -0.52653078D-02  0.72701453D-04 -0.34569456D-04
 -0.38131998D-04  0.10913706D-02  0.59466760D-03 -0.28555979D-03  0.15236839D-01
  0.27480267D-01  0.40519638D-01  0.23875344D-01  0.15315973D-02 -0.59719996D-04
  0.25229012D-01 -0.10305019D-01  0.14075648D-01  0.13684921D-01 -0.20445738D-02
  0.43294414D-02  0.20551321D-02  0.24034272D-03  0.52337439D-04 -0.26916186D-02
  0.87143253D-03  0.18201861D-02 -0.12111806D-01  0.96383927D-02 -0.83595968D-02
  0.55971283D-04 -0.13535208D-03  0.79380796D-04 -0.12957548D-02  0.90689512D-03
 -0.93479502D-05
END DATA
 TOTAL ENERGY =    -76.463168760659 THE VIRIAL(-V/T)=   2.00578648
