 11
GAUSSIAN              5 MOL ORBITALS    126 PRIMITIVES        3 NUCLEI   B3LYP   B3LYP   B3LYP
  O    1    (CENTRE  1)   0.00000000 -0.09448631  0.00815606  CHARGE =  8.0
  H    2    (CENTRE  2)   0.00000000 -1.44255835 -1.09730160  CHARGE =  1.0
  H    3    (CENTRE  3)   0.00000000  1.44255835 -1.09730160  CHARGE =  1.0
CENTRE ASSIGNMENTS    1  1  1  1  1  1  1  1  1  1  1  1  1  1  1  1  1  1  1  1
CENTRE ASSIGNMENTS    1  1  1  1  1  1  1  1  1  1  1  1  1  1  1  1  1  1  1  1
CENTRE ASSIGNMENTS    1  1  1  1  1  1  1  1  1  1  1  1  1  1  1  1  1  1  1  1
CENTRE ASSIGNMENTS    1  1  1  1  1  1  1  1  1  1  1  1  2  2  2  2  2  2  2  2
CENTRE ASSIGNMENTS    2  2  2  2  2  2  2  2  2  2  2  2  2  2  2  2  2  2  2  3
CENTRE ASSIGNMENTS    3  3  3  3  3  3  3  3  3  3  3  3  3  3  3  3  3  3  3  3
CENTRE ASSIGNMENTS    3  3  3  3  3  3
TYPE ASSIGNMENTS      1  1  1  1  1  1  1  1  1  1  1  1  1  1  1  1  2  2  2  3
TYPE ASSIGNMENTS      3  3  4  4  4  2  3  4  2  3  4  2  3  4  5  6  7  8  9 10
TYPE ASSIGNMENTS      5  6  7  8  9 10  5  6  7  8  9 10 11 12 13 17 14 15 18 19
TYPE ASSIGNMENTS     16 20 11 12 13 17 14 15 18 19 16 20  1  1  1  1  1  1  2  3
TYPE ASSIGNMENTS      4  2  3  4  2  3  4  5  6  7  8  9 10  5  6  7  8  9 10  1
TYPE ASSIGNMENTS      1  1  1  1  1  2  3  4  2  3  4  2  3  4  5  6  7  8  9 10
TYPE ASSIGNMENTS      5  6  7  8  9 10
EXPONENTS  0.1533000D+05 0.2299000D+04 0.5224000D+03 0.1473000D+03 0.4755000D+02
EXPONENTS  0.1676000D+02 0.6207000D+01 0.5224000D+03 0.1473000D+03 0.4755000D+02
EXPONENTS  0.1676000D+02 0.6207000D+01 0.6882000D+00 0.1752000D+01 0.2384000D+00
EXPONENTS  0.7376000D-01 0.3446000D+02 0.7749000D+01 0.2280000D+01 0.3446000D+02
EXPONENTS  0.7749000D+01 0.2280000D+01 0.3446000D+02 0.7749000D+01 0.2280000D+01
EXPONENTS  0.7156000D+00 0.7156000D+00 0.7156000D+00 0.2140000D+00 0.2140000D+00
EXPONENTS  0.2140000D+00 0.5974000D-01 0.5974000D-01 0.5974000D-01 0.2314000D+01
EXPONENTS  0.2314000D+01 0.2314000D+01 0.2314000D+01 0.2314000D+01 0.2314000D+01
EXPONENTS  0.6450000D+00 0.6450000D+00 0.6450000D+00 0.6450000D+00 0.6450000D+00
EXPONENTS  0.6450000D+00 0.2140000D+00 0.2140000D+00 0.2140000D+00 0.2140000D+00
EXPONENTS  0.2140000D+00 0.2140000D+00 0.1428000D+01 0.1428000D+01 0.1428000D+01
EXPONENTS  0.1428000D+01 0.1428000D+01 0.1428000D+01 0.1428000D+01 0.1428000D+01
EXPONENTS  0.1428000D+01 0.1428000D+01 0.5000000D+00 0.5000000D+00 0.5000000D+00
EXPONENTS  0.5000000D+00 0.5000000D+00 0.5000000D+00 0.5000000D+00 0.5000000D+00
EXPONENTS  0.5000000D+00 0.5000000D+00 0.3387000D+02 0.5095000D+01 0.1159000D+01
EXPONENTS  0.3258000D+00 0.1027000D+00 0.2526000D-01 0.1407000D+01 0.1407000D+01
EXPONENTS  0.1407000D+01 0.3880000D+00 0.3880000D+00 0.3880000D+00 0.1020000D+00
EXPONENTS  0.1020000D+00 0.1020000D+00 0.1057000D+01 0.1057000D+01 0.1057000D+01
EXPONENTS  0.1057000D+01 0.1057000D+01 0.1057000D+01 0.2470000D+00 0.2470000D+00
EXPONENTS  0.2470000D+00 0.2470000D+00 0.2470000D+00 0.2470000D+00 0.3387000D+02
EXPONENTS  0.5095000D+01 0.1159000D+01 0.3258000D+00 0.1027000D+00 0.2526000D-01
EXPONENTS  0.1407000D+01 0.1407000D+01 0.1407000D+01 0.3880000D+00 0.3880000D+00
EXPONENTS  0.3880000D+00 0.1020000D+00 0.1020000D+00 0.1020000D+00 0.1057000D+01
EXPONENTS  0.1057000D+01 0.1057000D+01 0.1057000D+01 0.1057000D+01 0.1057000D+01
EXPONENTS  0.2470000D+00 0.2470000D+00 0.2470000D+00 0.2470000D+00 0.2470000D+00
EXPONENTS  0.2470000D+00
MO    1     MO 0.0        OCC NO =    2.0000000  ORB. ENERGY =    0.000000
 -0.51614327D-01 -0.96200619D-01 -0.16312167D+00 -0.24686730D+00 -0.30794750D+00
 -0.26426477D+00 -0.10119937D+00  0.27695797D-03  0.29715772D-02  0.10953793D-01
  0.32028249D-01  0.38595597D-01 -0.46492487D-01 -0.34603146D-01  0.18074573D-01
  0.45884119D-02  0.13433210D+01  0.13025695D+01  0.87870568D+00  0.13770613D+00
  0.13352863D+00  0.90077624D-01  0.93611988D+00  0.90772139D+00  0.61234349D+00
  0.30319553D+00  0.24496832D-01  0.20258826D+00  0.49815725D-01  0.48486854D-03
  0.23224563D-01  0.15955033D-02 -0.66172820D-05  0.45373754D-03  0.29922708D-01
 -0.45112240D-02 -0.25411484D-01 -0.33599757D-02 -0.55304310D-01 -0.18288004D-01
  0.42212680D-02  0.30996854D-02 -0.73209534D-02  0.82648426D-03 -0.14052508D-01
  0.68491892D-03 -0.54035941D-03  0.87461348D-03 -0.33425407D-03  0.23774999D-03
 -0.92721763D-03  0.80086680D-03 -0.80105632D-02  0.13774066D-03  0.49937886D-03
  0.16741818D-01 -0.47206965D-03 -0.12183088D-01  0.72898711D-02  0.58847663D-04
  0.10684952D-01  0.13367904D-02 -0.27740351D-03  0.19256861D-03  0.46769040D-03
  0.42922124D-03  0.16742072D-03 -0.46929908D-04  0.40298928D-03 -0.74512655D-03
 -0.13561413D-02 -0.85140932D-03 -0.25610687D-01 -0.46189929D-01 -0.68107023D-01
 -0.46699802D-01 -0.54224114D-02 -0.32574750D-04  0.20469900D-01 -0.24986202D-01
 -0.87660477D-02  0.11103446D-01 -0.90168467D-02 -0.16623746D-02  0.16674592D-02
  0.19957885D-04  0.70394663D-03  0.38767394D-02 -0.52882591D-02  0.14115197D-02
  0.98270772D-02  0.78202401D-02 -0.10044688D-01 -0.47302141D-04 -0.76364655D-04
  0.12366680D-03  0.10513282D-02  0.73582160D-03  0.51009207D-03 -0.15842747D-01
 -0.28573046D-01 -0.42130940D-01 -0.27595966D-01 -0.43749993D-02 -0.74288349D-04
  0.16985966D-01  0.15296410D-01  0.29614366D-03  0.92826334D-02  0.66100107D-02
  0.79286629D-03  0.14693242D-02  0.14620270D-03  0.59752341D-03  0.16269542D-02
 -0.37276589D-02  0.21007047D-02 -0.87727972D-02  0.60580693D-02  0.24093219D-02
  0.12960255D-03 -0.17351549D-03  0.43912940D-04 -0.88549824D-03  0.48249159D-03
 -0.19014761D-03
MO    2     MO 0.0        OCC NO =    2.0000000  ORB. ENERGY =    0.000000
 -0.14669827D+00 -0.27342145D+00 -0.46362449D+00 -0.70164636D+00 -0.87524853D+00
 -0.75109345D+00 -0.28762889D+00 -0.19197672D-03 -0.20597842D-02 -0.75927526D-02
 -0.22200763D-01 -0.26752999D-01  0.32226822D-01  0.27845968D-02 -0.29392708D-01
 -0.57999723D-02  0.10372958D+01  0.10058280D+01  0.67852563D+00 -0.48986489D+00
 -0.47500416D+00 -0.32043500D+00 -0.10659074D+01 -0.10335716D+01 -0.69724129D+00
  0.23412383D+00 -0.96423101D-01 -0.22935959D+00  0.38467085D-01 -0.69215909D-02
 -0.25983777D-01  0.12320279D-02 -0.49866940D-04 -0.50426147D-03 -0.31209042D-01
  0.20653168D-02  0.29143725D-01 -0.25945315D-02 -0.42705302D-01  0.50562726D-01
 -0.41182096D-02 -0.41356509D-02  0.82538604D-02  0.63820090D-03 -0.10851172D-01
  0.31437005D-02  0.67846347D-03 -0.10243765D-02  0.34591300D-03  0.18358760D-03
 -0.71598595D-03 -0.11606728D-02 -0.61856575D-02 -0.18099168D-02 -0.96511925D-03
  0.12927825D-01  0.37340640D-02  0.12616118D-01  0.56291480D-02  0.16956864D-02
 -0.97207604D-02  0.10322529D-02 -0.21420755D-03 -0.23078599D-03 -0.49085752D-03
  0.33143932D-03  0.36608909D-04  0.75456915D-04  0.31118332D-03  0.65574907D-03
  0.13971157D-02 -0.65744772D-03  0.36029435D-01  0.64980570D-01  0.95813813D-01
  0.69085072D-01  0.84724370D-02  0.24143032D-04  0.15806603D-01  0.32169558D-01
  0.16110415D-01  0.85739431D-02  0.12329612D-01  0.48292338D-02  0.12875913D-02
 -0.37872298D-04 -0.72191268D-03 -0.65268557D-02  0.70551192D-02 -0.52826350D-03
  0.75883471D-02  0.60386924D-02  0.17614176D-01  0.48295316D-04  0.37784949D-04
 -0.86080265D-04  0.81182257D-03  0.56819232D-03 -0.47414345D-03  0.80168079D-02
  0.14458643D-01  0.21319261D-01  0.14928817D-01  0.31482978D-02  0.11498264D-03
  0.13116352D-01 -0.11381678D-01 -0.70315569D-02  0.71679343D-02 -0.57393323D-02
 -0.34129062D-02  0.11345940D-02 -0.23090763D-03 -0.72221364D-03 -0.46183377D-03
  0.35041975D-02 -0.30423637D-02 -0.67742452D-02  0.46779660D-02  0.14165674D-02
 -0.11025293D-03  0.20517103D-03 -0.94918100D-04 -0.68377075D-03  0.37257402D-03
  0.41807937D-03
MO    3     MO 0.0        OCC NO =    2.0000000  ORB. ENERGY =    0.000000
  0.36239038D+00  0.67543607D+00  0.11452968D+01  0.17332849D+01  0.21621363D+01
  0.18554346D+01  0.71053288D+00  0.11182318D-03  0.11997893D-02  0.44226494D-02
  0.12931568D-01  0.15583168D-01 -0.18771577D-01  0.30240471D-01 -0.15266651D-01
 -0.27542748D-02  0.54347010D+00  0.52698318D+00  0.35549974D+00  0.80744734D+00
  0.78295231D+00  0.52817500D+00 -0.47371866D+00 -0.45934775D+00 -0.30987328D+00
  0.12266443D+00  0.16749066D+00 -0.10518423D+00  0.20154049D-01  0.16254175D-01
 -0.14461985D-01  0.64549602D-03  0.15842591D-03 -0.28600627D-03 -0.13890978D-01
  0.17266159D-02  0.12164362D-01 -0.13593522D-02 -0.22374577D-01 -0.71755864D-01
 -0.20933273D-02 -0.15522898D-02  0.36456171D-02  0.33437242D-03 -0.56852516D-02
 -0.10148934D-01  0.81217892D-04 -0.32886822D-03  0.24765033D-03  0.96186997D-04
 -0.37512632D-03  0.34828117D-03 -0.32408498D-02  0.40382862D-02 -0.17359290D-03
  0.67732715D-02 -0.81722379D-02  0.68581257D-02  0.29492779D-02 -0.39426206D-02
 -0.63373470D-02  0.54082799D-03 -0.11222970D-03 -0.25054282D-04 -0.17895576D-03
  0.17365091D-03 -0.54219518D-03  0.63347524D-04  0.16303819D-03  0.61735803D-03
  0.47351974D-03 -0.34445640D-03 -0.12431560D-01 -0.22420831D-01 -0.33059502D-01
 -0.22519367D-01 -0.18433105D-02  0.89812060D-04  0.82815488D-02 -0.43928296D-02
 -0.18381986D-01  0.44921436D-02 -0.75271773D-03 -0.74564631D-02  0.67460734D-03
  0.23409671D-03 -0.49314912D-03  0.39032013D-02 -0.27354259D-04 -0.38758470D-02
  0.39757606D-02  0.31638504D-02 -0.12511591D-01 -0.24531615D-04  0.22649853D-03
 -0.20196692D-03  0.42533797D-03  0.29769284D-03 -0.38898878D-03  0.28141167D-01
  0.50753753D-01  0.74836379D-01  0.53018538D-01  0.80705999D-02 -0.15800769D-04
  0.68720466D-02 -0.17257705D-01  0.12116383D-01  0.37554938D-02 -0.77825730D-02
  0.52208088D-02  0.59444749D-03 -0.50993457D-04 -0.17977920D-03 -0.41251491D-02
  0.38070905D-02  0.31805866D-03 -0.35492284D-02  0.24509254D-02 -0.10836081D-01
 -0.18113299D-03  0.11354129D-03  0.67591706D-04 -0.35824782D-03  0.19520260D-03
 -0.44296042D-03
MO    4     MO 0.0        OCC NO =    2.0000000  ORB. ENERGY =    0.000000
 -0.32126912D+00 -0.59879281D+00 -0.10153374D+01 -0.15366051D+01 -0.19167938D+01
 -0.16448942D+01 -0.62990710D+00 -0.59994606D-03 -0.64370275D-02 -0.23728095D-01
 -0.69379559D-01 -0.83605742D-01  0.10071198D+00  0.22829057D-01  0.29019869D-01
  0.14355636D-02 -0.63802811D-01 -0.61867264D-01 -0.41735291D-01  0.10855259D+01
  0.10525949D+01  0.71007432D+00 -0.59040029D-01 -0.57248968D-01 -0.38619816D-01
 -0.14400674D-01  0.22759409D+00 -0.18625176D-01 -0.23660639D-02  0.22341647D-01
 -0.26746705D-02 -0.75780546D-04  0.23418109D-03 -0.54247346D-04 -0.74159340D-02
  0.65857019D-02  0.83023207D-03  0.15958650D-03  0.26267515D-02 -0.10112513D+00
 -0.31199324D-02  0.24883656D-02  0.63156687D-03 -0.39254966D-04  0.66744248D-03
 -0.15021151D-01 -0.23318757D-03  0.12025296D-03  0.11293461D-03 -0.11292251D-04
  0.44039430D-04  0.48643736D-03  0.38047232D-03  0.52878299D-02  0.40660624D-03
 -0.79517486D-03 -0.12368424D-01  0.26753699D-02 -0.34624209D-03 -0.34950656D-02
 -0.38951887D-02 -0.63492630D-04  0.13175647D-04  0.68805446D-04  0.10293264D-03
 -0.20386432D-04 -0.75403348D-03  0.52626747D-03 -0.19140510D-04  0.54761714D-03
 -0.83506540D-03  0.40438814D-04 -0.19648637D-01 -0.35437126D-01 -0.52252022D-01
 -0.43824442D-01 -0.59212896D-02  0.73266013D-04 -0.97224501D-03 -0.63735601D-02
 -0.16566610D-01 -0.52737287D-03 -0.32083659D-02 -0.73198024D-02 -0.79198183D-04
  0.28357844D-03 -0.13196098D-03  0.35382991D-02 -0.41943409D-03 -0.31188650D-02
 -0.46675006D-03 -0.37143267D-03 -0.10620629D-01 -0.37199516D-04  0.22840244D-03
 -0.19120292D-03 -0.49934225D-04 -0.34948822D-04 -0.18920801D-03  0.35098960D-01
  0.63302419D-01  0.93339380D-01  0.56259526D-01  0.59443681D-02 -0.12300293D-03
 -0.80677096D-03 -0.21761351D-01  0.22271961D-01 -0.44089098D-03 -0.64447617D-02
  0.81695118D-02 -0.69787502D-04  0.26665568D-03  0.92865009D-04 -0.58677510D-02
  0.38925015D-02  0.19752495D-02  0.41667563D-03 -0.28773603D-03 -0.17132304D-01
 -0.11796665D-03 -0.41231552D-04  0.15919820D-03  0.42057912D-04 -0.22916577D-04
 -0.63834795D-03
MO    5     MO 0.0        OCC NO =    2.0000000  ORB. ENERGY =    0.000000
  0.23816898D-01  0.44390782D-01  0.75270809D-01  0.11391437D+00  0.14209919D+00
  0.12194225D+00  0.46697403D-01 -0.15961924D-02 -0.17126097D-01 -0.63130018D-01
 -0.18458847D+00 -0.22243808D+00  0.26795024D+00  0.16795764D+00  0.96006552D-01
  0.84578278D-02  0.17037896D+00  0.16521028D+00  0.11144988D+00 -0.27240821D+00
 -0.26414433D+00 -0.17819021D+00  0.59770741D+00  0.57957513D+00  0.39097796D+00
  0.38455545D-01 -0.55129193D-01  0.12764970D+00  0.63183347D-02 -0.51637544D-02
  0.20212739D-01  0.20236429D-03 -0.61876371D-04  0.38460071D-03 -0.43821115D-02
  0.19952578D-01 -0.15570467D-01 -0.42615962D-03 -0.70144746D-02  0.27369901D-01
 -0.27005451D-02  0.66229342D-02 -0.39223891D-02  0.10482642D-03 -0.17823377D-02
  0.22082386D-02 -0.21662705D-03  0.43489695D-03 -0.21826990D-03  0.30154816D-04
 -0.11760285D-03 -0.17669107D-03 -0.10160129D-02 -0.96796102D-03  0.26445355D-02
  0.21234341D-02  0.24242363D-02 -0.16277724D-02  0.92460453D-03  0.47964675D-03
 -0.63058342D-02  0.16955066D-03 -0.35184235D-04 -0.75237038D-05 -0.89620145D-04
  0.54439907D-04 -0.95766622D-04 -0.94374045D-04  0.51112799D-04  0.11833773D-03
  0.36323448D-03 -0.10798777D-03  0.14865302D-01  0.26810185D-01  0.39531602D-01
  0.30147454D-02 -0.51672755D-02 -0.14920100D-03  0.25962821D-02  0.12770723D-01
  0.23461896D-01  0.14082960D-02 -0.27735714D-02  0.47488230D-02  0.21149075D-03
 -0.56730320D-03  0.36860788D-03 -0.19541441D-02 -0.13282803D-02  0.32824244D-02
  0.12464089D-02  0.99187343D-03  0.78893461D-02  0.14323480D-03 -0.26490587D-03
  0.12167107D-03  0.13334430D-03  0.93327301D-04  0.34871630D-04 -0.51870978D-03
 -0.93551446D-03 -0.13794155D-02 -0.21363164D-01 -0.81908590D-02 -0.10998188D-03
  0.21544004D-02 -0.44090588D-02  0.10166222D-01  0.11773548D-02  0.52378598D-02
  0.93323515D-03  0.18636048D-03  0.51561037D-03  0.29412733D-03  0.94526164D-03
 -0.26302204D-02  0.16849588D-02 -0.11126902D-02  0.76837001D-03  0.52884742D-03
  0.18300873D-03 -0.25867649D-03  0.75667759D-04 -0.11231141D-03  0.61196406D-04
  0.12774259D-03
END DATA
 TOTAL ENERGY =    -76.463168760659 THE VIRIAL(-V/T)=   2.00578648
