 20
GAUSSIAN              5 MOL ORBITALS    126 PRIMITIVES        3 NUCLEI   B3LYP   B3LYP   B3LYP
  O    1    (CENTRE  1)  -0.09448631  0.00000000  0.10264236  CHARGE =  8.0
  H    2    (CENTRE  2)   0.00000000 -1.44255835 -1.09730160  CHARGE =  1.0
  H    3    (CENTRE  3)   0.00000000  1.44255835 -1.09730160  CHARGE =  1.0
CENTRE ASSIGNMENTS    1  1  1  1  1  1  1  1  1  1  1  1  1  1  1  1  1  1  1  1
CENTRE ASSIGNMENTS    1  1  1  1  1  1  1  1  1  1  1  1  1  1  1  1  1  1  1  1
CENTRE ASSIGNMENTS    1  1  1  1  1  1  1  1  1  1  1  1  1  1  1  1  1  1  1  1
CENTRE ASSIGNMENTS    1  1  1  1  1  1  1  1  1  1  1  1  2  2  2  2  2  2  2  2
CENTRE ASSIGNMENTS    2  2  2  2  2  2  2  2  2  2  2  2  2  2  2  2  2  2  2  3
CENTRE ASSIGNMENTS    3  3  3  3  3  3  3  3  3  3  3  3  3  3  3  3  3  3  3  3
CENTRE ASSIGNMENTS    3  3  3  3  3  3
TYPE ASSIGNMENTS      1  1  1  1  1  1  1  1  1  1  1  1  1  1  1  1  2  2  2  3
TYPE ASSIGNMENTS      3  3  4  4  4  2  3  4  2  3  4  2  3  4  5  6  7  8  9 10
TYPE ASSIGNMENTS      5  6  7  8  9 10  5  6  7  8  9 10 11 12 13 17 14 15 18 19
TYPE ASSIGNMENTS     16 20 11 12 13 17 14 15 18 19 16 20  1  1  1  1  1  1  2  3
TYPE ASSIGNMENTS      4  2  3  4  2  3  4  5  6  7  8  9 10  5  6  7  8  9 10  1
TYPE ASSIGNMENTS      1  1  1  1  1  2  3  4  2  3  4  2  3  4  5  6  7  8  9 10
TYPE ASSIGNMENTS      5  6  7  8  9 10
EXPONENTS  0.1533000D+05 0.2299000D+04 0.5224000D+03 0.1473000D+03 0.4755000D+02
EXPONENTS  0.1676000D+02 0.6207000D+01 0.5224000D+03 0.1473000D+03 0.4755000D+02
EXPONENTS  0.1676000D+02 0.6207000D+01 0.6882000D+00 0.1752000D+01 0.2384000D+00
EXPONENTS  0.7376000D-01 0.3446000D+02 0.7749000D+01 0.2280000D+01 0.3446000D+02
EXPONENTS  0.7749000D+01 0.2280000D+01 0.3446000D+02 0.7749000D+01 0.2280000D+01
EXPONENTS  0.7156000D+00 0.7156000D+00 0.7156000D+00 0.2140000D+00 0.2140000D+00
EXPONENTS  0.2140000D+00 0.5974000D-01 0.5974000D-01 0.5974000D-01 0.2314000D+01
EXPONENTS  0.2314000D+01 0.2314000D+01 0.2314000D+01 0.2314000D+01 0.2314000D+01
EXPONENTS  0.6450000D+00 0.6450000D+00 0.6450000D+00 0.6450000D+00 0.6450000D+00
EXPONENTS  0.6450000D+00 0.2140000D+00 0.2140000D+00 0.2140000D+00 0.2140000D+00
EXPONENTS  0.2140000D+00 0.2140000D+00 0.1428000D+01 0.1428000D+01 0.1428000D+01
EXPONENTS  0.1428000D+01 0.1428000D+01 0.1428000D+01 0.1428000D+01 0.1428000D+01
EXPONENTS  0.1428000D+01 0.1428000D+01 0.5000000D+00 0.5000000D+00 0.5000000D+00
EXPONENTS  0.5000000D+00 0.5000000D+00 0.5000000D+00 0.5000000D+00 0.5000000D+00
EXPONENTS  0.5000000D+00 0.5000000D+00 0.3387000D+02 0.5095000D+01 0.1159000D+01
EXPONENTS  0.3258000D+00 0.1027000D+00 0.2526000D-01 0.1407000D+01 0.1407000D+01
EXPONENTS  0.1407000D+01 0.3880000D+00 0.3880000D+00 0.3880000D+00 0.1020000D+00
EXPONENTS  0.1020000D+00 0.1020000D+00 0.1057000D+01 0.1057000D+01 0.1057000D+01
EXPONENTS  0.1057000D+01 0.1057000D+01 0.1057000D+01 0.2470000D+00 0.2470000D+00
EXPONENTS  0.2470000D+00 0.2470000D+00 0.2470000D+00 0.2470000D+00 0.3387000D+02
EXPONENTS  0.5095000D+01 0.1159000D+01 0.3258000D+00 0.1027000D+00 0.2526000D-01
EXPONENTS  0.1407000D+01 0.1407000D+01 0.1407000D+01 0.3880000D+00 0.3880000D+00
EXPONENTS  0.3880000D+00 0.1020000D+00 0.1020000D+00 0.1020000D+00 0.1057000D+01
EXPONENTS  0.1057000D+01 0.1057000D+01 0.1057000D+01 0.1057000D+01 0.1057000D+01
EXPONENTS  0.2470000D+00 0.2470000D+00 0.2470000D+00 0.2470000D+00 0.2470000D+00
EXPONENTS  0.2470000D+00
MO    1     MO 0.0        OCC NO =    2.0000000  ORB. ENERGY =    0.000000
  0.83352471D-01  0.15535530D+00  0.26342675D+00  0.39866837D+00  0.49730736D+00
  0.42676371D+00  0.16342783D+00 -0.23820121D-03 -0.25557427D-02 -0.94209488D-02
 -0.27546302D-01 -0.33194633D-01  0.39986453D-01  0.33299361D-01 -0.34198406D-01
 -0.78272101D-02  0.29910937D+00  0.29003547D+00  0.19565622D+00  0.53420039D-01
  0.51799469D-01  0.34943615D-01 -0.14391383D+01 -0.13954800D+01 -0.94138259D+00
  0.66695724D-01  0.11333490D-01 -0.31394038D+00  0.99522131D-02  0.12226764D-02
 -0.37611910D-01  0.28156089D-03  0.14352941D-04 -0.68197538D-03 -0.42945516D-01
  0.29854494D-02  0.39960066D-01  0.39463805D-03 -0.20630614D-01 -0.50125378D-02
 -0.66887063D-02 -0.51225437D-02  0.11811250D-01  0.63116087D-04 -0.49841937D-02
 -0.80147716D-03  0.56912279D-03 -0.11560241D-02  0.58690127D-03  0.52750406D-07
 -0.15257098D-03 -0.65262743D-06 -0.25820432D-02  0.22166925D-03 -0.15575920D-02
  0.31909240D-02 -0.60546467D-03  0.18424415D-01  0.45552055D-02 -0.59543091D-04
 -0.13751639D-01 -0.86536616D-04 -0.10290643D-03  0.35511557D-05 -0.72502069D-03
 -0.36402312D-04 -0.45638776D-04  0.54719334D-03  0.34512161D-03  0.34985308D-04
  0.16278687D-02 -0.12777034D-04  0.29261491D-01  0.52774303D-01  0.77815680D-01
  0.53861358D-01  0.85538910D-02  0.10719174D-03  0.20843317D-02  0.26291341D-01
  0.40634666D-02  0.12246402D-02  0.11949215D-01  0.10801634D-02  0.26892361D-03
  0.30928032D-03 -0.80906186D-03 -0.38421771D-02  0.62709550D-02 -0.24287779D-02
  0.51175555D-03  0.72636847D-03  0.85464262D-02 -0.20481950D-03  0.28543304D-03
 -0.80613545D-04  0.12536388D-03  0.57663118D-04 -0.91991416D-04  0.31918872D-01
  0.57567000D-01  0.84882507D-01  0.58644281D-01  0.91643558D-02  0.96816017D-04
  0.19362857D-02 -0.27453434D-01  0.59435879D-02  0.11637564D-02 -0.12380624D-01
  0.18533307D-02  0.26788645D-03 -0.28086741D-03 -0.79585785D-03 -0.42906905D-02
  0.63964555D-02 -0.21057650D-02 -0.40702387D-03  0.60410491D-03 -0.98762968D-02
 -0.21668162D-03  0.27658117D-03 -0.59899547D-04 -0.12115444D-03  0.52498944D-04
  0.38469973D-04
MO    2     MO 0.0        OCC NO =    2.0000000  ORB. ENERGY =    0.000000
 -0.34677899D-02 -0.64633901D-02 -0.10959586D-01 -0.16586168D-01 -0.20689938D-01
 -0.17755045D-01 -0.67992388D-02 -0.14333014D-04 -0.15378383D-03 -0.56687617D-03
 -0.16575127D-02 -0.19973834D-02  0.24060599D-02  0.11760220D-02  0.50281482D-02
  0.84666571D-03  0.87713356D+00  0.85052451D+00  0.57375881D+00  0.12658412D+01
  0.12274402D+01  0.82802390D+00  0.20556829D+00  0.19933209D+00  0.13446825D+00
  0.19826259D+00  0.26855838D+00  0.45300180D-01  0.33120013D-01  0.28972538D-01
  0.62608165D-02  0.10836556D-02  0.34010729D-03  0.15207025D-03  0.63800445D-02
  0.13222237D-03 -0.65122669D-02  0.93513431D-02 -0.33984905D-01 -0.11877709D+00
  0.12724682D-02  0.57857054D-03 -0.18510388D-02  0.14955988D-02 -0.93740631D-02
 -0.18991802D-01  0.19851599D-05  0.10844059D-03 -0.11042575D-03  0.12499734D-05
 -0.70258749D-03 -0.15464656D-04 -0.50454330D-02  0.52526745D-02  0.64029337D-03
  0.99935071D-02 -0.14347091D-01 -0.37323895D-02  0.51427920D-02 -0.14109331D-02
  0.18115094D-02 -0.20505716D-02 -0.26777141D-03  0.84148185D-04  0.93544817D-04
  0.44998010D-03 -0.10814564D-02 -0.17319522D-03  0.35333414D-03  0.82901185D-03
 -0.10743923D-03 -0.30276459D-03 -0.33950662D-01 -0.61231417D-01 -0.90285689D-01
 -0.61666154D-01 -0.81301062D-02  0.11143311D-03  0.13251073D-01 -0.15887128D-01
 -0.21463577D-01  0.69850519D-02 -0.62266440D-02 -0.87404577D-02  0.98721631D-03
  0.30031203D-03 -0.47081385D-05  0.52978458D-02 -0.20630380D-02 -0.32348078D-02
  0.69599575D-02  0.59213141D-02 -0.16048280D-01  0.13187583D-03  0.76845679D-04
 -0.20872151D-03  0.61402424D-03  0.42602086D-03 -0.58420245D-03  0.29018637D-01
  0.52336306D-01  0.77169853D-01  0.51669973D-01  0.63354662D-02 -0.13443011D-03
  0.97429750D-02 -0.11649809D-01  0.23087775D-01  0.55423510D-02 -0.39960228D-02
  0.95805145D-02  0.96263988D-03  0.37296026D-03  0.30817407D-03 -0.53301283D-02
  0.91082149D-03  0.44193068D-02 -0.44782358D-02  0.30241567D-02 -0.15464333D-01
 -0.14920908D-03 -0.13290829D-03  0.28211737D-03 -0.51427739D-03  0.30365060D-03
 -0.68404163D-03
MO    3     MO 0.0        OCC NO =    2.0000000  ORB. ENERGY =    0.000000
 -0.32905183D-02 -0.61329851D-02 -0.10399338D-01 -0.15738292D-01 -0.19632279D-01
 -0.16847416D-01 -0.64516654D-02  0.90220164D-04  0.96800316D-03  0.35682419D-02
  0.10433330D-01  0.12572670D-01 -0.15145113D-01 -0.96321925D-02 -0.19048072D-02
  0.19480693D-03  0.15351428D+01  0.14885721D+01  0.10041820D+01 -0.73374660D+00
 -0.71148739D+00 -0.47996519D+00  0.20236818D+00  0.19622906D+00  0.13237496D+00
  0.34686789D+00 -0.15567023D+00  0.45338928D-01  0.57846101D-01 -0.16793972D-01
  0.65575283D-02  0.18877065D-02 -0.19714366D-03  0.18594937D-03  0.81880322D-02
 -0.98396030D-03 -0.72040719D-02 -0.54205189D-02 -0.60116183D-01  0.68849306D-01
  0.19827290D-02  0.70120354D-04 -0.20528494D-02 -0.86692588D-03 -0.16496172D-01
  0.11008624D-01  0.70412675D-04  0.62394966D-04 -0.13280764D-03 -0.72454878D-06
 -0.12186285D-02  0.89641091D-05 -0.88790990D-02 -0.30447200D-02  0.76481000D-03
  0.17386735D-01  0.83163107D-02 -0.49964789D-02  0.92505622D-02  0.81784929D-03
  0.27020489D-02  0.11886167D-02 -0.46764095D-03 -0.48776611D-04  0.10150398D-03
  0.76952246D-03  0.62686769D-03 -0.26750936D-03  0.63340038D-03 -0.48053786D-03
 -0.37002586D-04  0.17549791D-03  0.15735869D-01  0.28380287D-01  0.41846717D-01
  0.29188501D-01  0.38426402D-02 -0.72827031D-04  0.19012271D-01  0.56716200D-02
  0.13475561D-01  0.10462780D-01  0.22390371D-02  0.59730955D-02  0.16919908D-02
 -0.19425800D-03  0.27357405D-03 -0.33835916D-02  0.46676321D-03  0.29168283D-02
  0.91717961D-02  0.69350177D-02  0.91220096D-02 -0.12174808D-03 -0.73103452D-04
  0.19485153D-03  0.95085632D-03  0.59576122D-03  0.45131655D-03 -0.20764372D-01
 -0.37449400D-01 -0.55219118D-01 -0.36506941D-01 -0.45423488D-02  0.69687919D-04
  0.21045745D-01  0.10290204D-01 -0.12348692D-01  0.11299043D-01  0.36865458D-02
 -0.46466812D-02  0.17062366D-02 -0.19600521D-03  0.92211455D-04  0.27769283D-02
 -0.12570385D-02 -0.15198898D-02 -0.10610329D-01  0.86143589D-02  0.91443193D-02
  0.41183175D-04  0.48480725D-04 -0.89663901D-04 -0.10086747D-02  0.66669331D-03
  0.28382288D-03
MO    4     MO 0.0        OCC NO =    2.0000000  ORB. ENERGY =    0.000000
  0.50211712D+00  0.93586375D+00  0.15868885D+01  0.24015870D+01  0.29957905D+01
  0.25708339D+01  0.98449283D+00  0.41645869D-03  0.44683284D-02  0.16471100D-01
  0.48160530D-01  0.58035781D-01 -0.69910248D-01  0.16825046D-01 -0.11661288D-01
  0.35305091D-04 -0.28515442D-01 -0.27650387D-01 -0.18652788D-01 -0.66498069D-02
 -0.64480759D-02 -0.43498339D-02  0.19479622D+00  0.18888681D+00  0.12742192D+00
 -0.65450925D-02 -0.14108099D-02  0.45312941D-01 -0.87343556D-03 -0.15220059D-03
  0.47960729D-02 -0.22911247D-04 -0.17866757D-05  0.85734351D-04  0.80202350D-02
 -0.22333372D-02 -0.57868978D-02 -0.49125139D-04  0.27196132D-02  0.62396826D-03
  0.24513311D-02 -0.53939216D-03 -0.19119389D-02 -0.78567856D-05  0.83702250D-03
  0.99769084D-04 -0.20388866D-06  0.99452794D-04 -0.99248905D-04 -0.65664510D-08
  0.26301787D-04  0.81240058D-07  0.31189282D-03 -0.27593723D-04  0.11508569D-03
 -0.35218549D-03  0.75369154D-04 -0.29211728D-02 -0.58349296D-03  0.74120137D-05
  0.25759157D-02  0.10772208D-04  0.40146881D-04 -0.44205321D-06  0.28751120D-04
 -0.35243430D-04  0.56811835D-05 -0.45114289D-03 -0.85197212D-04 -0.43550239D-05
  0.36488953D-03  0.15905044D-05 -0.76014672D-02 -0.13709559D-01 -0.20214737D-01
 -0.98664148D-02 -0.67260666D-03  0.48607528D-05  0.12163893D-03 -0.72923130D-02
 -0.37101899D-02 -0.30386097D-04 -0.21202615D-02 -0.79408911D-03 -0.22505654D-04
  0.31357569D-05  0.10098386D-03  0.15818714D-02 -0.16190158D-02  0.37144416D-04
  0.26652859D-03  0.17737541D-03 -0.44520701D-02  0.24475726D-04 -0.34901774D-04
  0.10426049D-04 -0.85291040D-05 -0.32575580D-05  0.19158172D-05 -0.79322619D-02
 -0.14306161D-01 -0.21094426D-01 -0.10461800D-01 -0.74859823D-03  0.61523388D-05
  0.14006792D-03  0.74369720D-02 -0.39442302D-02 -0.22807198D-04  0.21739639D-02
 -0.89033414D-03 -0.22376547D-04 -0.66726387D-05  0.99340207D-04  0.16377030D-02
 -0.16346383D-02 -0.30647225D-05 -0.27956574D-03  0.19259496D-03  0.46176144D-02
  0.25952341D-04 -0.33799880D-04  0.78475389D-05  0.80051068D-05 -0.26147138D-05
  0.47466126D-05
MO    5     MO 0.0        OCC NO =    2.0000000  ORB. ENERGY =    0.000000
 -0.14554391D-01 -0.27126992D-01 -0.45997627D-01 -0.69612518D-01 -0.86836129D-01
 -0.74518318D-01 -0.28536557D-01 -0.16865499D-02 -0.18095573D-01 -0.66703691D-01
 -0.19503768D+00 -0.23502989D+00  0.28311840D+00  0.17270261D+00  0.10158119D+00
  0.86229675D-02  0.12509032D-02  0.12129553D-02  0.81825250D-03 -0.59195491D-01
 -0.57399714D-01 -0.38721508D-01  0.56686189D+00  0.54966535D+00  0.37080100D+00
  0.10514698D-02 -0.12558799D-01  0.11831175D+00  0.29991660D-03 -0.13548647D-02
  0.18118150D-01  0.30932238D-04 -0.15904694D-04  0.32191318D-03 -0.47182914D-02
  0.17969006D-01 -0.13250715D-01 -0.43730393D-03 -0.50040368D-03  0.55544631D-02
 -0.36774717D-02  0.69408705D-02 -0.32633989D-02 -0.69939817D-04 -0.57245832D-03
  0.88812802D-03 -0.31671747D-03  0.49108941D-03 -0.17437194D-03 -0.58453449D-07
 -0.59547048D-04  0.72318538D-06 -0.19790764D-03 -0.24563479D-03  0.27934742D-02
  0.11071254D-02  0.67092385D-03 -0.92582744D-03 -0.51340247D-03  0.65980530D-04
 -0.74545952D-02  0.95892431D-04 -0.26866474D-04 -0.39350852D-05  0.84683153D-04
  0.55048569D-04  0.50572964D-04  0.15672710D-03  0.25550853D-04 -0.38767708D-04
 -0.41077656D-03  0.14158409D-04  0.83819877D-02  0.15117260D-01  0.22290391D-01
 -0.69661176D-02 -0.64389749D-02 -0.14074522D-03 -0.69506364D-03  0.90405542D-02
  0.16369030D-01  0.11814874D-03 -0.34204674D-02  0.26078941D-02  0.31060997D-04
 -0.53759499D-03  0.24955395D-03 -0.68430437D-03 -0.14536522D-02  0.21379565D-02
  0.20685863D-04 -0.21253965D-03  0.34535852D-02  0.11439252D-03 -0.19427571D-03
  0.79883186D-04  0.29177195D-04  0.24593537D-04  0.36288471D-06  0.54373067D-02
  0.98064066D-02  0.14459541D-01 -0.12266141D-01 -0.71154394D-02 -0.12924773D-03
 -0.53101178D-03 -0.77528236D-02  0.14285641D-01  0.18561486D-03  0.38985177D-02
  0.17511366D-02  0.32210283D-04  0.50611025D-03  0.23492240D-03 -0.18730037D-03
 -0.15927210D-02  0.17800214D-02 -0.13674049D-03 -0.77057686D-04 -0.19799371D-02
  0.12753711D-03 -0.18446682D-03  0.56929716D-04 -0.33841732D-04  0.30316030D-04
  0.58944973D-04
END DATA
 TOTAL ENERGY =    -76.464114905867 THE VIRIAL(-V/T)=   2.00733839
