 21
GAUSSIAN              5 MOL ORBITALS    126 PRIMITIVES        3 NUCLEI   B3LYP   B3LYP   B3LYP
  O    1    (CENTRE  1)   0.00000000  0.09448631  0.10264236  CHARGE =  8.0
  H    2    (CENTRE  2)   0.00000000 -1.44255835 -1.09730160  CHARGE =  1.0
  H    3    (CENTRE  3)   0.00000000  1.44255835 -1.09730160  CHARGE =  1.0
CENTRE ASSIGNMENTS    1  1  1  1  1  1  1  1  1  1  1  1  1  1  1  1  1  1  1  1
CENTRE ASSIGNMENTS    1  1  1  1  1  1  1  1  1  1  1  1  1  1  1  1  1  1  1  1
CENTRE ASSIGNMENTS    1  1  1  1  1  1  1  1  1  1  1  1  1  1  1  1  1  1  1  1
CENTRE ASSIGNMENTS    1  1  1  1  1  1  1  1  1  1  1  1  2  2  2  2  2  2  2  2
CENTRE ASSIGNMENTS    2  2  2  2  2  2  2  2  2  2  2  2  2  2  2  2  2  2  2  3
CENTRE ASSIGNMENTS    3  3  3  3  3  3  3  3  3  3  3  3  3  3  3  3  3  3  3  3
CENTRE ASSIGNMENTS    3  3  3  3  3  3
TYPE ASSIGNMENTS      1  1  1  1  1  1  1  1  1  1  1  1  1  1  1  1  2  2  2  3
TYPE ASSIGNMENTS      3  3  4  4  4  2  3  4  2  3  4  2  3  4  5  6  7  8  9 10
TYPE ASSIGNMENTS      5  6  7  8  9 10  5  6  7  8  9 10 11 12 13 17 14 15 18 19
TYPE ASSIGNMENTS     16 20 11 12 13 17 14 15 18 19 16 20  1  1  1  1  1  1  2  3
TYPE ASSIGNMENTS      4  2  3  4  2  3  4  5  6  7  8  9 10  5  6  7  8  9 10  1
TYPE ASSIGNMENTS      1  1  1  1  1  2  3  4  2  3  4  2  3  4  5  6  7  8  9 10
TYPE ASSIGNMENTS      5  6  7  8  9 10
EXPONENTS  0.1533000D+05 0.2299000D+04 0.5224000D+03 0.1473000D+03 0.4755000D+02
EXPONENTS  0.1676000D+02 0.6207000D+01 0.5224000D+03 0.1473000D+03 0.4755000D+02
EXPONENTS  0.1676000D+02 0.6207000D+01 0.6882000D+00 0.1752000D+01 0.2384000D+00
EXPONENTS  0.7376000D-01 0.3446000D+02 0.7749000D+01 0.2280000D+01 0.3446000D+02
EXPONENTS  0.7749000D+01 0.2280000D+01 0.3446000D+02 0.7749000D+01 0.2280000D+01
EXPONENTS  0.7156000D+00 0.7156000D+00 0.7156000D+00 0.2140000D+00 0.2140000D+00
EXPONENTS  0.2140000D+00 0.5974000D-01 0.5974000D-01 0.5974000D-01 0.2314000D+01
EXPONENTS  0.2314000D+01 0.2314000D+01 0.2314000D+01 0.2314000D+01 0.2314000D+01
EXPONENTS  0.6450000D+00 0.6450000D+00 0.6450000D+00 0.6450000D+00 0.6450000D+00
EXPONENTS  0.6450000D+00 0.2140000D+00 0.2140000D+00 0.2140000D+00 0.2140000D+00
EXPONENTS  0.2140000D+00 0.2140000D+00 0.1428000D+01 0.1428000D+01 0.1428000D+01
EXPONENTS  0.1428000D+01 0.1428000D+01 0.1428000D+01 0.1428000D+01 0.1428000D+01
EXPONENTS  0.1428000D+01 0.1428000D+01 0.5000000D+00 0.5000000D+00 0.5000000D+00
EXPONENTS  0.5000000D+00 0.5000000D+00 0.5000000D+00 0.5000000D+00 0.5000000D+00
EXPONENTS  0.5000000D+00 0.5000000D+00 0.3387000D+02 0.5095000D+01 0.1159000D+01
EXPONENTS  0.3258000D+00 0.1027000D+00 0.2526000D-01 0.1407000D+01 0.1407000D+01
EXPONENTS  0.1407000D+01 0.3880000D+00 0.3880000D+00 0.3880000D+00 0.1020000D+00
EXPONENTS  0.1020000D+00 0.1020000D+00 0.1057000D+01 0.1057000D+01 0.1057000D+01
EXPONENTS  0.1057000D+01 0.1057000D+01 0.1057000D+01 0.2470000D+00 0.2470000D+00
EXPONENTS  0.2470000D+00 0.2470000D+00 0.2470000D+00 0.2470000D+00 0.3387000D+02
EXPONENTS  0.5095000D+01 0.1159000D+01 0.3258000D+00 0.1027000D+00 0.2526000D-01
EXPONENTS  0.1407000D+01 0.1407000D+01 0.1407000D+01 0.3880000D+00 0.3880000D+00
EXPONENTS  0.3880000D+00 0.1020000D+00 0.1020000D+00 0.1020000D+00 0.1057000D+01
EXPONENTS  0.1057000D+01 0.1057000D+01 0.1057000D+01 0.1057000D+01 0.1057000D+01
EXPONENTS  0.2470000D+00 0.2470000D+00 0.2470000D+00 0.2470000D+00 0.2470000D+00
EXPONENTS  0.2470000D+00
MO    1     MO 0.0        OCC NO =    2.0000000  ORB. ENERGY =    0.000000
 -0.25582997D+00 -0.47682500D+00 -0.80852380D+00 -0.12236148D+01 -0.15263630D+01
 -0.13098465D+01 -0.50160164D+00 -0.15126665D-03 -0.16229919D-02 -0.59826537D-02
 -0.17492929D-01 -0.21079830D-01  0.25392889D-01 -0.13148282D-01  0.27933833D-01
  0.49176377D-02 -0.50219695D+00 -0.48696211D+00 -0.32850176D+00  0.94739717D+00
  0.91865657D+00  0.61972030D+00  0.78372703D+00  0.75995158D+00  0.51265885D+00
 -0.11341303D+00  0.20261786D+00  0.17271678D+00 -0.18865869D-01  0.22751377D-01
  0.22811861D-01 -0.61431800D-03  0.26778774D-03  0.41868690D-03  0.21215162D-01
 -0.19468128D-03 -0.21020480D-01 -0.10609794D-02  0.20182627D-01 -0.84770183D-01
  0.34225601D-02  0.27965897D-02 -0.62191498D-02  0.21261600D-03  0.54535355D-02
 -0.15052925D-01 -0.14887568D-03  0.52324044D-03 -0.37436476D-03  0.78976735D-04
  0.39551440D-03 -0.36979997D-03  0.29564631D-02  0.42668375D-02  0.10390345D-02
 -0.56720734D-02 -0.11186833D-01 -0.10561714D-01 -0.31973160D-02 -0.16136796D-02
  0.74446103D-02  0.51992253D-03  0.15208970D-03 -0.47566297D-04  0.30214568D-03
 -0.24967927D-03 -0.91527478D-03 -0.36075995D-03 -0.20658982D-03  0.10579737D-02
 -0.54567711D-03 -0.28319072D-03 -0.36688834D-01 -0.66169823D-01 -0.97567366D-01
 -0.68496403D-01 -0.11389606D-01  0.11431128D-04 -0.59634433D-02 -0.20300686D-01
 -0.13649511D-01 -0.32650927D-02 -0.99306932D-02 -0.62257629D-02 -0.52247367D-03
 -0.90606483D-04  0.27811215D-03  0.50074968D-02 -0.42728460D-02 -0.73465085D-03
 -0.30765488D-02 -0.22686143D-02 -0.12872022D-01  0.34346503D-03 -0.20524926D-03
 -0.13821577D-03 -0.29151286D-03 -0.16390527D-03 -0.72002107D-03  0.89179364D-02
  0.16083866D-01  0.23715650D-01  0.13062837D-01  0.35820970D-04 -0.14930872D-03
 -0.71151322D-02  0.25965822D-02  0.18345909D-01 -0.38593956D-02  0.27713594D-02
  0.72385783D-02 -0.59117432D-03  0.47553214D-03  0.60757097D-03 -0.26861435D-02
 -0.24315648D-02  0.51177083D-02  0.33531619D-02 -0.28662702D-02 -0.89700649D-02
  0.17179611D-04 -0.29876208D-03  0.28158247D-03  0.34750772D-03 -0.25545990D-03
 -0.45377322D-03
MO    2     MO 0.0        OCC NO =    2.0000000  ORB. ENERGY =    0.000000
  0.22494489D+00  0.41926028D+00  0.71091472D+00  0.10758938D+01  0.13420928D+01
  0.11517153D+01  0.44104576D+00 -0.21243834D-04 -0.22793240D-03 -0.84020174D-03
 -0.24567006D-02 -0.29604437D-02  0.35661681D-02  0.29566961D-01  0.44788184D-01
  0.78459416D-02  0.54035002D+00  0.52395776D+00  0.35345881D+00 -0.23192978D+00
 -0.22489387D+00 -0.15171207D+00  0.12918608D+01  0.12526704D+01  0.84504406D+00
  0.12202928D+00 -0.44174891D-01  0.28058640D+00  0.20299153D-01 -0.26189689D-02
  0.33661937D-01  0.66098917D-03 -0.15091100D-04  0.61071834D-03  0.34619247D-01
  0.17227894D-02 -0.36342036D-01  0.11415845D-02 -0.21715949D-01  0.26744251D-01
  0.51436079D-02  0.52051898D-02 -0.10348798D-01 -0.22876893D-03 -0.58678533D-02
  0.69386727D-03 -0.55058314D-03  0.10164281D-02 -0.46584493D-03 -0.84976781D-04
 -0.42556255D-03 -0.81362230D-03 -0.31810725D-02 -0.56956794D-03  0.20688094D-02
  0.61029940D-02  0.11210603D-02 -0.15352862D-01  0.34402235D-02  0.58764356D-03
  0.91464338D-02 -0.55942225D-03 -0.16364430D-03 -0.18826034D-03  0.56666614D-03
  0.26864799D-03 -0.26678675D-04 -0.54940375D-03  0.22228492D-03  0.59145970D-03
 -0.11505947D-02  0.30470537D-03 -0.17236656D-01 -0.31087019D-01 -0.45837791D-01
 -0.34114230D-01 -0.70909497D-02 -0.13210122D-03  0.64165000D-02 -0.15671685D-01
  0.37596609D-02  0.35131494D-02 -0.89063885D-02  0.13680491D-02  0.56216721D-03
 -0.41362975D-03  0.69583653D-03  0.19920495D-02 -0.48834981D-02  0.28914486D-02
  0.33102814D-02  0.24409662D-02 -0.29631873D-02  0.22475054D-03 -0.30322999D-03
  0.78479446D-04  0.31365977D-03  0.17635754D-03  0.38997781D-04 -0.31619899D-01
 -0.57027790D-01 -0.84087443D-01 -0.63272799D-01 -0.95291127D-02 -0.76190943D-04
  0.76556854D-02  0.27305367D-01 -0.91363597D-02  0.41526028D-02  0.12636962D-01
 -0.35425999D-02  0.63608721D-03  0.21585518D-03  0.73026994D-03  0.55709179D-02
 -0.64991967D-02  0.92827877D-03 -0.36079095D-02  0.30840274D-02  0.14642899D-01
  0.98170226D-04 -0.18938452D-03  0.91214294D-04 -0.37390869D-03  0.27486778D-03
 -0.20437731D-03
MO    3     MO 0.0        OCC NO =    2.0000000  ORB. ENERGY =    0.000000
  0.37640072D+00  0.70154906D+00  0.11895750D+01  0.18002953D+01  0.22457265D+01
  0.19271674D+01  0.73800274D+00  0.51109456D-03  0.54837092D-02  0.20213985D-01
  0.59104506D-01  0.71223804D-01 -0.85796619D-01 -0.74477278D-02 -0.37560103D-01
 -0.36402092D-02 -0.49996356D+00 -0.48479647D+00 -0.32704084D+00  0.84367090D+00
  0.81807698D+00  0.55186990D+00 -0.35753419D+00 -0.34668789D+00 -0.23387361D+00
 -0.11290866D+00  0.17969203D+00 -0.72181903D-01 -0.18781968D-01  0.19358804D-01
 -0.83202775D-02 -0.61158598D-03  0.23186582D-03 -0.14992422D-03 -0.57393901D-02
 -0.44845423D-02  0.10223932D-01 -0.10562610D-02  0.20092870D-01 -0.80595236D-01
  0.11600518D-02 -0.36576227D-02  0.24975710D-02  0.21167045D-03  0.54292823D-02
 -0.13263653D-01  0.38716581D-03 -0.43582304D-03  0.48657232D-04  0.78625506D-04
  0.39375545D-03  0.45997658D-04  0.29433150D-02  0.34661593D-02 -0.95681788D-03
 -0.56468484D-02 -0.10208206D-01  0.26666151D-02 -0.31830967D-02 -0.19027133D-03
  0.20383859D-03  0.51761031D-03  0.15141332D-03  0.10672337D-03 -0.28435574D-03
 -0.24856889D-03 -0.75787579D-03 -0.41740267D-03 -0.20567106D-03  0.43770568D-03
  0.12704699D-02 -0.28193130D-03 -0.19492826D-01 -0.35156115D-01 -0.51837671D-01
 -0.27450468D-01 -0.19328090D-02  0.14733354D-03 -0.59369225D-02 -0.82079744D-02
 -0.16370943D-01 -0.32505721D-02 -0.71000466D-03 -0.58293130D-02 -0.52015011D-03
  0.39653454D-03 -0.26285665D-03  0.30674514D-02 -0.21830232D-03 -0.28491491D-02
 -0.30628667D-02 -0.22585252D-02 -0.99429356D-02  0.64535261D-04  0.10840933D-03
 -0.17294459D-03 -0.29021643D-03 -0.16317635D-03 -0.52444928D-03  0.22624918D-01
  0.40804972D-01  0.60166907D-01  0.48276904D-01  0.71173399D-02 -0.39100051D-04
 -0.70834895D-02 -0.10086558D-01  0.12897071D-01 -0.38422319D-02 -0.52549394D-02
  0.58905435D-02 -0.58854523D-03  0.20658217D-03 -0.14626098D-03 -0.35199252D-02
  0.13161331D-02  0.22037921D-02  0.33382496D-02 -0.28535232D-02 -0.95652857D-02
 -0.48613385D-04 -0.10325918D-03  0.15187256D-03  0.34596227D-03 -0.25432381D-03
 -0.13385778D-03
MO    4     MO 0.0        OCC NO =    2.0000000  ORB. ENERGY =    0.000000
 -0.40016895D-01 -0.74584912D-01 -0.12646920D+00 -0.19139769D+00 -0.23875353D+00
 -0.20488605D+00 -0.78460471D-01  0.34154324D-03  0.36645348D-02  0.13508165D-01
  0.39497083D-01  0.47595905D-01 -0.57334312D-01 -0.39559183D-01 -0.29569709D-01
 -0.30380391D-02  0.15442775D+01  0.14974297D+01  0.10101572D+01  0.62077301D+00
  0.60194101D+00  0.40606585D+00 -0.31948582D+00 -0.30979378D+00 -0.20898505D+00
  0.34875002D+00  0.13102367D+00 -0.66358368D-01  0.58013370D-01  0.13772417D-01
 -0.77394345D-02  0.18890546D-02  0.15686547D-03 -0.13723790D-03 -0.45867717D-02
 -0.43973731D-02  0.89841448D-02  0.32625579D-02 -0.62062459D-01 -0.58533223D-01
  0.39718567D-03 -0.26933682D-02  0.22961825D-02 -0.65380347D-03 -0.16769859D-01
 -0.90434431D-02  0.27382598D-03 -0.33184762D-03  0.58021631D-04 -0.24285690D-03
 -0.12162240D-02  0.13940787D-03 -0.90912530D-02  0.25976497D-02 -0.95405931D-03
  0.17441873D-01 -0.69575109D-02  0.21248334D-02  0.98318860D-02 -0.83543812D-03
  0.73734449D-03 -0.15987844D-02 -0.46768245D-03  0.73466691D-04 -0.16718094D-03
  0.76777465D-03 -0.54106136D-03 -0.90665972D-04  0.63527269D-03  0.32066129D-03
  0.59220880D-03  0.87082380D-03 -0.13181857D-01 -0.23774021D-01 -0.35054781D-01
 -0.18569043D-01 -0.11713325D-02  0.10496077D-03  0.18337848D-01 -0.53542804D-02
 -0.12269000D-01  0.10040302D-01 -0.23952176D-03 -0.44496738D-02  0.16066293D-02
  0.28608879D-03 -0.23169789D-03  0.19561710D-02  0.24583510D-03 -0.22020061D-02
  0.94605217D-02  0.69760879D-02 -0.65009920D-02  0.43958300D-04  0.86864473D-04
 -0.13082277D-03  0.89641475D-03  0.50401587D-03 -0.39530791D-03  0.17912563D-01
  0.32306045D-01  0.47635244D-01  0.38745689D-01  0.59093618D-02 -0.17690631D-04
  0.21879342D-01 -0.91045316D-02  0.10076514D-01  0.11867810D-01 -0.49653894D-02
  0.48365921D-02  0.18178868D-02  0.79283299D-04 -0.99378804D-04 -0.34916097D-02
  0.17702438D-02  0.17213659D-02 -0.10311119D-01  0.88139058D-02 -0.96609839D-02
 -0.54584696D-04 -0.46398985D-04  0.10098368D-03 -0.10686014D-02  0.78555032D-03
 -0.13074801D-03
MO    5     MO 0.0        OCC NO =    2.0000000  ORB. ENERGY =    0.000000
 -0.20512298D-03 -0.38231551D-03 -0.64826967D-03 -0.98108721D-03 -0.12238290D-02
 -0.10502273D-02 -0.40218127D-03 -0.16363619D-02 -0.17557089D-01 -0.64718736D-01
 -0.18923379D+00 -0.22803592D+00  0.27469343D+00  0.16921900D+00  0.81294550D-01
  0.53589709D-02  0.20557521D+00  0.19933880D+00  0.13447278D+00  0.31259671D+00
  0.30311365D+00  0.20447868D+00  0.49368892D-01  0.47871219D-01  0.32293641D-01
  0.46425825D-01  0.63852730D-01  0.73471274D-02  0.77227767D-02  0.60858232D-02
  0.51505121D-02  0.25147216D-03  0.79373881D-04  0.83854339D-04 -0.18672285D-01
  0.17122586D-01  0.15496994D-02  0.43431378D-03 -0.82617941D-02 -0.33689490D-01
 -0.53213163D-02  0.44871378D-02  0.83417853D-03 -0.87034734D-04 -0.22324144D-02
 -0.29197184D-02 -0.31870670D-04  0.39460001D-04 -0.75893305D-05 -0.32329265D-04
 -0.16190452D-03  0.29984706D-03 -0.12102334D-02  0.83677490D-03  0.19402975D-02
  0.23218732D-02 -0.28367326D-02  0.50771523D-02  0.13088269D-02  0.32640790D-03
 -0.10898045D-01 -0.21283120D-03 -0.62258185D-04  0.86312291D-04 -0.18706125D-03
  0.10220665D-03  0.55484512D-04  0.22874881D-03  0.84567905D-04 -0.31442139D-03
  0.33243494D-03  0.11592462D-03  0.72944056D-02  0.13155761D-01  0.19398162D-01
 -0.49302554D-02 -0.50867133D-02 -0.54994860D-04  0.24411460D-02  0.11859698D-01
  0.91236228D-02  0.13365715D-02 -0.77677170D-03  0.44413270D-03  0.21387552D-03
 -0.31883769D-03 -0.48357537D-04 -0.23792457D-03  0.20465890D-04  0.21745868D-03
  0.12593907D-02  0.92866126D-03  0.99768121D-03  0.75031398D-04 -0.93237703D-04
  0.18206305D-04  0.11933130D-03  0.67094913D-04 -0.16736086D-03  0.25363177D-01
  0.45743533D-01  0.67448813D-01  0.24575780D-01 -0.19469206D-02 -0.12667851D-03
  0.29125919D-02 -0.21566063D-01  0.24503066D-01  0.15798504D-02 -0.19260768D-02
  0.49882108D-02  0.24199825D-03  0.50113816D-03 -0.44449889D-04 -0.35366071D-02
  0.10457856D-02  0.24908215D-02 -0.13726227D-02  0.11733127D-02 -0.11091241D-01
  0.75739980D-04 -0.13462905D-03  0.58889068D-04 -0.14225290D-03  0.10457296D-03
  0.85316505D-04
END DATA
 TOTAL ENERGY =    -76.461913012318 THE VIRIAL(-V/T)=   2.00714445
