 21
GAUSSIAN              5 MOL ORBITALS    126 PRIMITIVES        3 NUCLEI   B3LYP   B3LYP   B3LYP
  O    1    (CENTRE  1)   0.00000000 -0.09448631  0.10264236  CHARGE =  8.0
  H    2    (CENTRE  2)   0.00000000 -1.44255835 -1.09730160  CHARGE =  1.0
  H    3    (CENTRE  3)   0.00000000  1.44255835 -1.09730160  CHARGE =  1.0
CENTRE ASSIGNMENTS    1  1  1  1  1  1  1  1  1  1  1  1  1  1  1  1  1  1  1  1
CENTRE ASSIGNMENTS    1  1  1  1  1  1  1  1  1  1  1  1  1  1  1  1  1  1  1  1
CENTRE ASSIGNMENTS    1  1  1  1  1  1  1  1  1  1  1  1  1  1  1  1  1  1  1  1
CENTRE ASSIGNMENTS    1  1  1  1  1  1  1  1  1  1  1  1  2  2  2  2  2  2  2  2
CENTRE ASSIGNMENTS    2  2  2  2  2  2  2  2  2  2  2  2  2  2  2  2  2  2  2  3
CENTRE ASSIGNMENTS    3  3  3  3  3  3  3  3  3  3  3  3  3  3  3  3  3  3  3  3
CENTRE ASSIGNMENTS    3  3  3  3  3  3
TYPE ASSIGNMENTS      1  1  1  1  1  1  1  1  1  1  1  1  1  1  1  1  2  2  2  3
TYPE ASSIGNMENTS      3  3  4  4  4  2  3  4  2  3  4  2  3  4  5  6  7  8  9 10
TYPE ASSIGNMENTS      5  6  7  8  9 10  5  6  7  8  9 10 11 12 13 17 14 15 18 19
TYPE ASSIGNMENTS     16 20 11 12 13 17 14 15 18 19 16 20  1  1  1  1  1  1  2  3
TYPE ASSIGNMENTS      4  2  3  4  2  3  4  5  6  7  8  9 10  5  6  7  8  9 10  1
TYPE ASSIGNMENTS      1  1  1  1  1  2  3  4  2  3  4  2  3  4  5  6  7  8  9 10
TYPE ASSIGNMENTS      5  6  7  8  9 10
EXPONENTS  0.1533000D+05 0.2299000D+04 0.5224000D+03 0.1473000D+03 0.4755000D+02
EXPONENTS  0.1676000D+02 0.6207000D+01 0.5224000D+03 0.1473000D+03 0.4755000D+02
EXPONENTS  0.1676000D+02 0.6207000D+01 0.6882000D+00 0.1752000D+01 0.2384000D+00
EXPONENTS  0.7376000D-01 0.3446000D+02 0.7749000D+01 0.2280000D+01 0.3446000D+02
EXPONENTS  0.7749000D+01 0.2280000D+01 0.3446000D+02 0.7749000D+01 0.2280000D+01
EXPONENTS  0.7156000D+00 0.7156000D+00 0.7156000D+00 0.2140000D+00 0.2140000D+00
EXPONENTS  0.2140000D+00 0.5974000D-01 0.5974000D-01 0.5974000D-01 0.2314000D+01
EXPONENTS  0.2314000D+01 0.2314000D+01 0.2314000D+01 0.2314000D+01 0.2314000D+01
EXPONENTS  0.6450000D+00 0.6450000D+00 0.6450000D+00 0.6450000D+00 0.6450000D+00
EXPONENTS  0.6450000D+00 0.2140000D+00 0.2140000D+00 0.2140000D+00 0.2140000D+00
EXPONENTS  0.2140000D+00 0.2140000D+00 0.1428000D+01 0.1428000D+01 0.1428000D+01
EXPONENTS  0.1428000D+01 0.1428000D+01 0.1428000D+01 0.1428000D+01 0.1428000D+01
EXPONENTS  0.1428000D+01 0.1428000D+01 0.5000000D+00 0.5000000D+00 0.5000000D+00
EXPONENTS  0.5000000D+00 0.5000000D+00 0.5000000D+00 0.5000000D+00 0.5000000D+00
EXPONENTS  0.5000000D+00 0.5000000D+00 0.3387000D+02 0.5095000D+01 0.1159000D+01
EXPONENTS  0.3258000D+00 0.1027000D+00 0.2526000D-01 0.1407000D+01 0.1407000D+01
EXPONENTS  0.1407000D+01 0.3880000D+00 0.3880000D+00 0.3880000D+00 0.1020000D+00
EXPONENTS  0.1020000D+00 0.1020000D+00 0.1057000D+01 0.1057000D+01 0.1057000D+01
EXPONENTS  0.1057000D+01 0.1057000D+01 0.1057000D+01 0.2470000D+00 0.2470000D+00
EXPONENTS  0.2470000D+00 0.2470000D+00 0.2470000D+00 0.2470000D+00 0.3387000D+02
EXPONENTS  0.5095000D+01 0.1159000D+01 0.3258000D+00 0.1027000D+00 0.2526000D-01
EXPONENTS  0.1407000D+01 0.1407000D+01 0.1407000D+01 0.3880000D+00 0.3880000D+00
EXPONENTS  0.3880000D+00 0.1020000D+00 0.1020000D+00 0.1020000D+00 0.1057000D+01
EXPONENTS  0.1057000D+01 0.1057000D+01 0.1057000D+01 0.1057000D+01 0.1057000D+01
EXPONENTS  0.2470000D+00 0.2470000D+00 0.2470000D+00 0.2470000D+00 0.2470000D+00
EXPONENTS  0.2470000D+00
MO    1     MO 0.0        OCC NO =    2.0000000  ORB. ENERGY =    0.000000
  0.40985596D+00  0.76390412D+00  0.12953068D+01  0.19603091D+01  0.24453311D+01
  0.20984579D+01  0.80359788D+00  0.45941643D-03  0.49292368D-02  0.18170095D-01
  0.53128292D-01  0.64022175D-01 -0.77121495D-01  0.11676660D-02  0.30722960D-02
  0.27792107D-02 -0.21049249D+00 -0.20410691D+00 -0.13768932D+00  0.49221809D+00
  0.47728597D+00  0.32197430D+00  0.67263553D+00  0.65223020D+00  0.43999064D+00
 -0.47536315D-01  0.10016681D+00  0.14685715D+00 -0.79075029D-02  0.92051332D-02
  0.15990973D-01 -0.25748728D-03  0.94864994D-04  0.28977279D-03  0.22312693D-01
 -0.24460761D-02 -0.19866617D-01  0.44470241D-03  0.84594134D-02 -0.49033872D-01
  0.41228161D-02  0.15949786D-02 -0.57177947D-02 -0.89116575D-04  0.22858129D-02
 -0.48748753D-02 -0.31344429D-03  0.53467659D-03 -0.22123230D-03 -0.33102570D-04
  0.16577722D-03  0.58251296D-03  0.12391818D-02  0.17833247D-02  0.76314932D-03
 -0.23774117D-02 -0.41831003D-02 -0.87755046D-02 -0.13401336D-02 -0.11668738D-02
  0.64860566D-02 -0.21792205D-03  0.63747379D-04  0.13178148D-03  0.31899635D-03
 -0.10465140D-03 -0.20777006D-03 -0.45645429D-03 -0.86590741D-04 -0.18757438D-03
 -0.50053476D-03  0.11869750D-03 -0.30741262D-01 -0.55443133D-01 -0.81750867D-01
 -0.54037307D-01 -0.63021283D-02  0.14942503D-04 -0.29822601D-02 -0.24007637D-01
 -0.17635254D-01 -0.16176399D-02 -0.88472367D-02 -0.59007358D-02 -0.24778676D-03
  0.67744703D-04  0.32960003D-03  0.58912081D-02 -0.44312030D-02 -0.14600051D-02
 -0.14054554D-02 -0.12013780D-02 -0.16608305D-01  0.53234629D-04 -0.29163196D-04
 -0.24071433D-04 -0.14565554D-03 -0.10707431D-03  0.15334934D-04 -0.40690591D-02
 -0.73387157D-02 -0.10820932D-01 -0.39024323D-02 -0.51292751D-03 -0.75667726D-04
 -0.24995374D-02  0.83530896D-02  0.40758298D-02 -0.13685418D-02  0.32299108D-02
  0.25973122D-02 -0.21899135D-03  0.16862601D-03  0.42514831D-03  0.20844128D-03
 -0.23531269D-02  0.21446856D-02  0.12895149D-02 -0.95087452D-03 -0.78672412D-03
  0.40083094D-04 -0.12786091D-03  0.87777818D-04  0.12218567D-03 -0.68699800D-04
 -0.27013547D-03
MO    2     MO 0.0        OCC NO =    2.0000000  ORB. ENERGY =    0.000000
  0.43817539D-01  0.81668689D-01  0.13848074D+00  0.20957587D+00  0.26142938D+00
  0.22434530D+00  0.85912333D-01 -0.23345202D-03 -0.25047870D-02 -0.92331165D-02
 -0.26997091D-01 -0.32532808D-01  0.39189214D-01  0.27490317D-01 -0.16161905D-01
 -0.49490812D-02 -0.38488868D+00 -0.37321255D+00 -0.25176698D+00  0.10125886D+01
  0.98187030D+00  0.66236391D+00 -0.97724983D+00 -0.94760360D+00 -0.63924779D+00
 -0.86920864D-01  0.21835335D+00 -0.21668635D+00 -0.14458988D-01  0.25106108D-01
 -0.27433117D-01 -0.47081936D-03  0.30050310D-03 -0.50364475D-03 -0.30218258D-01
  0.33221131D-02  0.26896145D-01  0.81314504D-03  0.15468164D-01 -0.89668974D-01
 -0.57062932D-02 -0.23461957D-02  0.80524888D-02 -0.16295099D-03  0.41796433D-02
 -0.17213390D-01  0.17335217D-03 -0.63542961D-03  0.46207744D-03 -0.60528547D-04
  0.30312613D-03 -0.60386100D-03  0.22658624D-02  0.46725332D-02 -0.10041733D-02
 -0.43471329D-02 -0.12634059D-01  0.13984723D-01 -0.24504544D-02 -0.13835410D-02
 -0.10972204D-01 -0.39847374D-03  0.11656304D-03 -0.77131717D-04 -0.37792969D-03
 -0.19135665D-03 -0.10824849D-02  0.65381043D-03 -0.15833247D-03  0.13138800D-02
  0.47997864D-03  0.21704015D-03 -0.23841160D-02 -0.42998515D-02 -0.63401285D-02
 -0.48324628D-02  0.32573747D-03  0.15363482D-03 -0.54531074D-02  0.10197214D-01
 -0.14700672D-01 -0.29578788D-02  0.48959439D-02 -0.66863802D-02 -0.45308182D-03
  0.49447748D-03 -0.72823907D-03  0.14011907D-02  0.38740385D-02 -0.52752291D-02
 -0.25698963D-02 -0.21967377D-02 -0.52720926D-02 -0.19754863D-04  0.34205127D-03
 -0.32229641D-03 -0.26633334D-03 -0.19578698D-03 -0.52509150D-03  0.45472809D-01
  0.82012084D-01  0.12092677D+00  0.80211999D-01  0.12371234D-01 -0.24470975D-04
 -0.45704417D-02 -0.27216159D-01  0.17585161D-01 -0.25023992D-02 -0.11777006D-01
  0.71188719D-02 -0.40042897D-03 -0.38898168D-04 -0.38380421D-03 -0.61276604D-02
  0.54028614D-02  0.72479898D-03  0.23578973D-02 -0.17386883D-02 -0.15804891D-01
 -0.38860207D-03  0.23014968D-03  0.15845239D-03  0.22341832D-03 -0.12561862D-03
 -0.78308268D-03
MO    3     MO 0.0        OCC NO =    2.0000000  ORB. ENERGY =    0.000000
 -0.25193696D+00 -0.46956908D+00 -0.79622036D+00 -0.12049948D+01 -0.15031361D+01
 -0.12899144D+01 -0.49396868D+00 -0.21119702D-03 -0.22660055D-02 -0.83529229D-02
 -0.24423456D-01 -0.29431453D-01  0.35453304D-01 -0.85027581D-02  0.38092007D-01
  0.54044875D-02  0.62245795D+00  0.60357483D+00  0.40716801D+00  0.92676507D+00
  0.89865037D+00  0.60622423D+00  0.80231742D+00  0.77797801D+00  0.52481937D+00
  0.14057203D+00  0.19495598D+00  0.16975656D+00  0.23383675D-01  0.20068300D-01
  0.19337278D-01  0.76142861D-03  0.23502869D-03  0.35133019D-03  0.21175093D-01
  0.20338212D-02 -0.23208914D-01 -0.13150519D-02 -0.25015757D-01 -0.90806631D-01
  0.17099036D-02  0.45797007D-02 -0.62896043D-02  0.26353111D-03 -0.67594925D-02
 -0.13116161D-01 -0.55791606D-03  0.77390348D-03 -0.21598741D-03  0.97889277D-04
 -0.49022815D-03  0.39678903D-03 -0.36644467D-02  0.35953324D-02  0.13430895D-02
  0.70303637D-02 -0.10407698D-01 -0.89697941D-02  0.39629766D-02 -0.37829941D-03
  0.49405257D-02  0.64442827D-03 -0.18851058D-03  0.18289476D-03  0.50232394D-03
  0.30946991D-03 -0.68947378D-03  0.13920490D-03  0.25606184D-03  0.14078949D-03
 -0.16461767D-02 -0.35100634D-03 -0.37051860D-01 -0.66824555D-01 -0.98532767D-01
 -0.72625541D-01 -0.98623689D-02  0.29230355D-04  0.88189915D-02 -0.23126534D-01
 -0.19537464D-01  0.47836042D-02 -0.99266153D-02 -0.76711545D-02  0.73274271D-03
  0.19387553D-03  0.41104511D-03  0.59747102D-02 -0.38300993D-02 -0.21446109D-02
  0.41561429D-02  0.35526553D-02 -0.16311546D-01  0.69859150D-04  0.48146436D-04
 -0.11800559D-03  0.43072532D-03  0.31663483D-03 -0.38130194D-04  0.10657284D-01
  0.19220850D-01  0.28341132D-01  0.13944379D-01  0.49348385D-04 -0.17687644D-03
  0.73915079D-02  0.68366267D-04  0.15190590D-01  0.40469838D-02  0.24804890D-02
  0.58923210D-02  0.64759034D-03  0.46900262D-03  0.51089544D-03 -0.20857165D-02
 -0.16089725D-02  0.36946890D-02 -0.38132893D-02  0.28118789D-02 -0.80103763D-02
  0.95008389D-05 -0.19727126D-03  0.18777042D-03 -0.36132138D-03  0.20315564D-03
 -0.53366080D-03
MO    4     MO 0.0        OCC NO =    2.0000000  ORB. ENERGY =    0.000000
  0.15038163D+00  0.28028664D+00  0.47526539D+00  0.71926363D+00  0.89722468D+00
  0.76995226D+00  0.29485081D+00  0.48937106D-03  0.52506303D-02  0.19354812D-01
  0.56592335D-01  0.68196516D-01 -0.82149930D-01 -0.33054214D-01 -0.41501555D-01
 -0.48015026D-02  0.15757438D+01  0.15279414D+01  0.10307403D+01 -0.17853791D-01
 -0.17312172D-01 -0.11678689D-01 -0.56278929D+00 -0.54571630D+00 -0.36813699D+00
  0.35585617D+00 -0.31107216D-02 -0.12051587D+00  0.59195453D-01  0.15554077D-03
 -0.15619215D-01  0.19275461D-02  0.46504091D-05 -0.28266898D-03 -0.10477989D-01
 -0.46407323D-02  0.15118722D-01 -0.33290359D-02 -0.63327047D-01  0.33793281D-02
 -0.53328242D-03 -0.36302530D-02  0.41635354D-02  0.66712540D-03 -0.17111563D-01
  0.48424935D-04  0.27041481D-03 -0.46925194D-03  0.19883713D-03  0.24780537D-03
 -0.12410059D-02 -0.20692912D-03 -0.92764969D-02  0.17423224D-04 -0.12871803D-02
  0.17797270D-01  0.14671744D-03  0.55326778D-02  0.10032221D-01 -0.19898711D-03
 -0.16711369D-02  0.16313614D-02 -0.47721197D-03 -0.66641453D-04 -0.24243433D-03
  0.78341886D-03  0.14194029D-04  0.16914390D-04  0.64821704D-03  0.18573033D-03
  0.71038861D-03 -0.88856775D-03  0.64666539D-02  0.11662877D-01  0.17196905D-01
  0.19625664D-01  0.43702710D-02  0.61413875D-04  0.22325156D-01  0.52300313D-02
 -0.30858515D-02  0.12109629D-01  0.43924444D-02 -0.17021792D-03  0.18549282D-02
  0.18040803D-03 -0.33055666D-03 -0.85252803D-03  0.20572798D-02 -0.12047518D-02
  0.10521219D-01  0.89934984D-02  0.15389889D-02 -0.50952033D-04  0.10109805D-03
 -0.50146019D-04  0.10903753D-02  0.80155674D-03 -0.96943239D-04  0.50485046D-02
  0.91051859D-02  0.13425591D-01  0.15862357D-01  0.44819094D-02  0.78477335D-04
  0.18711501D-01 -0.34122461D-02 -0.40328598D-02  0.10244884D-01 -0.40955469D-02
 -0.60745183D-03  0.16393661D-02 -0.28242107D-03 -0.27580687D-03 -0.61930131D-03
  0.19191827D-02 -0.12998814D-02 -0.96532898D-02  0.71182330D-02 -0.46288318D-03
 -0.12174915D-03  0.15959154D-03 -0.37842390D-04 -0.91468014D-03  0.51428572D-03
 -0.37502647D-04
MO    5     MO 0.0        OCC NO =    2.0000000  ORB. ENERGY =    0.000000
  0.57786859D-01  0.10770520D+00  0.18262931D+00  0.27639004D+00  0.34477478D+00
  0.29586806D+00  0.11330175D+00 -0.15903556D-02 -0.17063472D-01 -0.62899172D-01
 -0.18391349D+00 -0.22162470D+00  0.26697043D+00  0.17140767D+00  0.90753441D-01
  0.72429970D-02  0.39790564D+00  0.38583462D+00  0.26028176D+00 -0.13922191D+00
 -0.13499842D+00 -0.91069138D-01  0.38414938D+00  0.37249568D+00  0.25128339D+00
  0.89860533D-01 -0.28459272D-01  0.79787816D-01  0.14947991D-01 -0.28551929D-02
  0.13527131D-01  0.48674250D-03 -0.45223569D-04  0.23591887D-03 -0.90573967D-02
  0.17115616D-01 -0.80582191D-02 -0.84064565D-03 -0.15991298D-01  0.15995044D-01
 -0.39016598D-02  0.57862571D-02 -0.18845973D-02  0.16846201D-03 -0.43209990D-02
  0.10972189D-02 -0.19623133D-03  0.31583923D-03 -0.11960790D-03  0.62575626D-04
 -0.31337787D-03 -0.77208927D-04 -0.23424940D-02 -0.23024592D-03  0.24286963D-02
  0.44941532D-02  0.12665005D-02  0.10068239D-02  0.25333289D-02 -0.57576278D-03
 -0.82929126D-02  0.41195015D-03 -0.12050521D-03 -0.27098271D-04 -0.22557240D-04
  0.19782834D-03 -0.13462474D-03  0.10621134D-03  0.16368728D-03  0.21591955D-03
 -0.38539623D-04 -0.22438046D-03  0.13784702D-01  0.24861277D-01  0.36657939D-01
  0.26310750D-02 -0.48973811D-02 -0.13241735D-03  0.56375318D-02  0.12629803D-01
  0.19234586D-01  0.30579144D-02 -0.18103538D-02  0.30851995D-02  0.46840507D-03
 -0.50358085D-03  0.13596606D-03 -0.14985526D-02 -0.75226755D-03  0.22508202D-02
  0.26568104D-02  0.22710315D-02  0.55367577D-02  0.10154426D-03 -0.16024083D-03
  0.58696572D-04  0.27534074D-03  0.20240851D-03 -0.56248854D-04  0.51685689D-02
  0.93217268D-02  0.13744881D-01 -0.91065370D-02 -0.61307946D-02 -0.97782264D-04
  0.47250142D-02 -0.85011569D-02  0.11373328D-01  0.25870305D-02  0.26553228D-02
  0.14479674D-02  0.41397150D-03  0.43631421D-03  0.14666458D-03 -0.10168438D-03
 -0.11018638D-02  0.12035482D-02 -0.24376415D-02  0.17974909D-02 -0.13400554D-02
  0.11259011D-03 -0.16841697D-03  0.55826860D-04 -0.23097434D-03  0.12986704D-03
  0.82971477D-04
END DATA
 TOTAL ENERGY =    -76.461913012318 THE VIRIAL(-V/T)=   2.00714445
