 21
GAUSSIAN              5 MOL ORBITALS    126 PRIMITIVES        3 NUCLEI   B3LYP   B3LYP   B3LYP
  O    1    (CENTRE  1)   0.00000000  0.09448631 -0.08633025  CHARGE =  8.0
  H    2    (CENTRE  2)   0.00000000 -1.44255835 -1.09730160  CHARGE =  1.0
  H    3    (CENTRE  3)   0.00000000  1.44255835 -1.09730160  CHARGE =  1.0
CENTRE ASSIGNMENTS    1  1  1  1  1  1  1  1  1  1  1  1  1  1  1  1  1  1  1  1
CENTRE ASSIGNMENTS    1  1  1  1  1  1  1  1  1  1  1  1  1  1  1  1  1  1  1  1
CENTRE ASSIGNMENTS    1  1  1  1  1  1  1  1  1  1  1  1  1  1  1  1  1  1  1  1
CENTRE ASSIGNMENTS    1  1  1  1  1  1  1  1  1  1  1  1  2  2  2  2  2  2  2  2
CENTRE ASSIGNMENTS    2  2  2  2  2  2  2  2  2  2  2  2  2  2  2  2  2  2  2  3
CENTRE ASSIGNMENTS    3  3  3  3  3  3  3  3  3  3  3  3  3  3  3  3  3  3  3  3
CENTRE ASSIGNMENTS    3  3  3  3  3  3
TYPE ASSIGNMENTS      1  1  1  1  1  1  1  1  1  1  1  1  1  1  1  1  2  2  2  3
TYPE ASSIGNMENTS      3  3  4  4  4  2  3  4  2  3  4  2  3  4  5  6  7  8  9 10
TYPE ASSIGNMENTS      5  6  7  8  9 10  5  6  7  8  9 10 11 12 13 17 14 15 18 19
TYPE ASSIGNMENTS     16 20 11 12 13 17 14 15 18 19 16 20  1  1  1  1  1  1  2  3
TYPE ASSIGNMENTS      4  2  3  4  2  3  4  5  6  7  8  9 10  5  6  7  8  9 10  1
TYPE ASSIGNMENTS      1  1  1  1  1  2  3  4  2  3  4  2  3  4  5  6  7  8  9 10
TYPE ASSIGNMENTS      5  6  7  8  9 10
EXPONENTS  0.1533000D+05 0.2299000D+04 0.5224000D+03 0.1473000D+03 0.4755000D+02
EXPONENTS  0.1676000D+02 0.6207000D+01 0.5224000D+03 0.1473000D+03 0.4755000D+02
EXPONENTS  0.1676000D+02 0.6207000D+01 0.6882000D+00 0.1752000D+01 0.2384000D+00
EXPONENTS  0.7376000D-01 0.3446000D+02 0.7749000D+01 0.2280000D+01 0.3446000D+02
EXPONENTS  0.7749000D+01 0.2280000D+01 0.3446000D+02 0.7749000D+01 0.2280000D+01
EXPONENTS  0.7156000D+00 0.7156000D+00 0.7156000D+00 0.2140000D+00 0.2140000D+00
EXPONENTS  0.2140000D+00 0.5974000D-01 0.5974000D-01 0.5974000D-01 0.2314000D+01
EXPONENTS  0.2314000D+01 0.2314000D+01 0.2314000D+01 0.2314000D+01 0.2314000D+01
EXPONENTS  0.6450000D+00 0.6450000D+00 0.6450000D+00 0.6450000D+00 0.6450000D+00
EXPONENTS  0.6450000D+00 0.2140000D+00 0.2140000D+00 0.2140000D+00 0.2140000D+00
EXPONENTS  0.2140000D+00 0.2140000D+00 0.1428000D+01 0.1428000D+01 0.1428000D+01
EXPONENTS  0.1428000D+01 0.1428000D+01 0.1428000D+01 0.1428000D+01 0.1428000D+01
EXPONENTS  0.1428000D+01 0.1428000D+01 0.5000000D+00 0.5000000D+00 0.5000000D+00
EXPONENTS  0.5000000D+00 0.5000000D+00 0.5000000D+00 0.5000000D+00 0.5000000D+00
EXPONENTS  0.5000000D+00 0.5000000D+00 0.3387000D+02 0.5095000D+01 0.1159000D+01
EXPONENTS  0.3258000D+00 0.1027000D+00 0.2526000D-01 0.1407000D+01 0.1407000D+01
EXPONENTS  0.1407000D+01 0.3880000D+00 0.3880000D+00 0.3880000D+00 0.1020000D+00
EXPONENTS  0.1020000D+00 0.1020000D+00 0.1057000D+01 0.1057000D+01 0.1057000D+01
EXPONENTS  0.1057000D+01 0.1057000D+01 0.1057000D+01 0.2470000D+00 0.2470000D+00
EXPONENTS  0.2470000D+00 0.2470000D+00 0.2470000D+00 0.2470000D+00 0.3387000D+02
EXPONENTS  0.5095000D+01 0.1159000D+01 0.3258000D+00 0.1027000D+00 0.2526000D-01
EXPONENTS  0.1407000D+01 0.1407000D+01 0.1407000D+01 0.3880000D+00 0.3880000D+00
EXPONENTS  0.3880000D+00 0.1020000D+00 0.1020000D+00 0.1020000D+00 0.1057000D+01
EXPONENTS  0.1057000D+01 0.1057000D+01 0.1057000D+01 0.1057000D+01 0.1057000D+01
EXPONENTS  0.2470000D+00 0.2470000D+00 0.2470000D+00 0.2470000D+00 0.2470000D+00
EXPONENTS  0.2470000D+00
MO    1     MO 0.0        OCC NO =    2.0000000  ORB. ENERGY =    0.000000
  0.26067852D-01  0.48586191D-01  0.82384714D-01  0.12468050D+00  0.15552910D+00
  0.13346711D+00  0.51110812D-01  0.23440224D-03  0.25149822D-02  0.92706978D-02
  0.27106977D-01  0.32665225D-01 -0.39348725D-01 -0.21217988D-01  0.40902602D-01
  0.79976752D-02  0.21486987D+00  0.20835149D+00  0.14055269D+00  0.12060046D+00
  0.11694188D+00  0.78888302D-01  0.15377660D+01  0.14911158D+01  0.10058979D+01
  0.48442332D-01  0.31526521D-01  0.33291998D+00  0.78533617D-02  0.58259076D-02
  0.39254140D-01  0.24718270D-03  0.81024296D-04  0.81253980D-03  0.45243744D-01
 -0.62079109D-02 -0.39035834D-01  0.62633404D-03 -0.89551028D-02 -0.29165568D-02
  0.58278849D-02  0.53953470D-02 -0.11223232D-01 -0.18231000D-03 -0.21330809D-02
 -0.54831804D-02 -0.98266655D-03  0.15840527D-02 -0.60138614D-03 -0.42088463D-04
 -0.12834653D-03 -0.10705200D-02 -0.12923356D-02  0.14561336D-02  0.21330843D-03
  0.29399175D-02 -0.27247026D-02 -0.18437786D-01  0.93708948D-03 -0.16436984D-02
  0.17797860D-01 -0.19571891D-03 -0.22748769D-04 -0.32314111D-03  0.62117712D-03
  0.19924080D-04 -0.40403385D-03  0.16409764D-03  0.48322226D-04  0.13734572D-02
 -0.20276290D-02  0.15046803D-03 -0.31794880D-01 -0.57343375D-01 -0.84552773D-01
 -0.58869924D-01 -0.88900785D-02 -0.92395994D-04  0.28838014D-02 -0.28822715D-01
 -0.13620646D-02  0.15772763D-02 -0.12392817D-01  0.40385472D-03  0.24696617D-03
 -0.13298111D-03  0.10930791D-02  0.40730374D-02 -0.77867070D-02  0.37136697D-02
  0.14919358D-02  0.96232470D-03 -0.71542891D-02  0.17510563D-03 -0.23449422D-03
  0.59388584D-04  0.15944714D-03  0.83760008D-04  0.45513397D-03 -0.29518946D-01
 -0.53238635D-01 -0.78500336D-01 -0.57316102D-01 -0.69022335D-02 -0.85004295D-04
  0.35130943D-02  0.35027859D-01 -0.18715535D-02  0.19078501D-02  0.12946163D-01
  0.21312818D-02  0.28066844D-03  0.20497533D-04  0.13686908D-02  0.42939932D-02
 -0.89410848D-02  0.46470916D-02 -0.17204123D-02  0.12664650D-02  0.92018196D-02
 -0.12508134D-03 -0.17620535D-03  0.30128669D-03 -0.18850241D-03  0.12455095D-03
 -0.12227441D-02
MO    2     MO 0.0        OCC NO =    2.0000000  ORB. ENERGY =    0.000000
 -0.16553529D+00 -0.30853056D+00 -0.52315693D+00 -0.79174238D+00 -0.98763621D+00
 -0.84753880D+00 -0.32456233D+00 -0.11308880D-03 -0.12133686D-02 -0.44727050D-02
 -0.13077927D-01 -0.15759538D-01  0.18984034D-01 -0.75100010D-02 -0.29404640D-02
 -0.80126960D-03  0.16559646D+01  0.16057286D+01  0.10832151D+01  0.23331499D+00
  0.22623706D+00  0.15261818D+00 -0.16784457D+00 -0.16275277D+00 -0.10979206D+00
  0.37333661D+00  0.45270870D-01 -0.35318331D-01  0.60524490D-01  0.29622311D-02
 -0.33241830D-02  0.19049940D-02  0.11208152D-04 -0.67137354D-04 -0.49687611D-02
  0.59079722D-03  0.43779639D-02  0.48270473D-02 -0.69015417D-01 -0.21460585D-01
 -0.63131260D-03 -0.58105030D-03  0.12123629D-02 -0.14050314D-02 -0.16439283D-01
 -0.12594874D-02  0.17484463D-03 -0.21703651D-03  0.42191877D-04 -0.32436845D-03
 -0.98914432D-03  0.53933453D-03 -0.99598056D-02  0.10702151D-02 -0.13624948D-03
  0.22657432D-01 -0.16177564D-02  0.16380032D-02  0.72219853D-02 -0.15928888D-02
 -0.12292548D-02 -0.15083715D-02 -0.17532079D-03  0.61162901D-04 -0.66449290D-04
  0.15355141D-03 -0.21688130D-04 -0.72897188D-05  0.37241097D-03 -0.16180057D-03
  0.20663759D-03  0.11596309D-02 -0.21313933D-02 -0.38440555D-02 -0.56680576D-02
 -0.48788465D-02 -0.70598910D-03  0.18109204D-04  0.22224955D-01 -0.30135661D-04
 -0.33186673D-02  0.12155794D-01 -0.11861280D-03 -0.15828361D-02  0.19033252D-02
 -0.96577354D-05 -0.15352027D-03  0.46846148D-03  0.13489173D-03 -0.60335321D-03
  0.11498089D-01  0.74164688D-02 -0.18652679D-02 -0.40148376D-05  0.14850196D-04
 -0.10835359D-04  0.12288313D-02  0.64552378D-03 -0.18493598D-03  0.10869999D-01
  0.19604490D-01  0.28906810D-01  0.20869900D-01  0.22274341D-02 -0.31595209D-05
  0.27074805D-01 -0.10405165D-01  0.74120507D-02  0.14703468D-01 -0.35472270D-02
  0.23462958D-02  0.21630627D-02  0.27716440D-04 -0.97212975D-04 -0.25725692D-02
  0.24430409D-02  0.12952831D-03 -0.13258918D-01  0.97604253D-02 -0.72342034D-02
  0.48357621D-04 -0.40674289D-04 -0.76833325D-05 -0.14527552D-02  0.95989246D-03
  0.11779803D-03
MO    3     MO 0.0        OCC NO =    2.0000000  ORB. ENERGY =    0.000000
 -0.24959289D+00 -0.46520010D+00 -0.78881214D+00 -0.11937833D+01 -0.14891506D+01
 -0.12779127D+01 -0.48937269D+00 -0.52592547D-03 -0.56428352D-02 -0.20800553D-01
 -0.60819597D-01 -0.73290572D-01  0.88286260D-01  0.26098282D-01  0.20371779D-01
  0.17645039D-02 -0.53967563D+00 -0.52330382D+00 -0.35301767D+00  0.11759667D+01
  0.11402922D+01  0.76923436D+00  0.94373138D-01  0.91510199D-01  0.61732240D-01
 -0.12166967D+00  0.23463010D+00  0.24993176D-01 -0.19724813D-01  0.18039920D-01
  0.71961858D-02 -0.62083380D-03  0.12364305D-03  0.15111045D-03 -0.29717890D-02
  0.52903125D-02 -0.23185235D-02 -0.15731252D-02  0.22491989D-01 -0.10723187D+00
 -0.10084088D-03  0.71840277D-03 -0.61756188D-03  0.45789697D-03  0.53575300D-02
 -0.97751233D-02  0.28175847D-03 -0.15613634D-03 -0.12562213D-03  0.10571104D-03
  0.32236019D-03  0.18378989D-02  0.32458811D-02  0.58113511D-02  0.47546751D-03
 -0.73840125D-02 -0.10179735D-01 -0.67691917D-03 -0.23536309D-02 -0.72543178D-02
 -0.74948337D-03  0.49157532D-03  0.57136703D-04  0.13746915D-03 -0.19487555D-03
 -0.50042104D-04 -0.25739036D-03 -0.25696984D-03 -0.12136801D-03 -0.15501709D-03
  0.84159648D-03 -0.37792144D-03 -0.26674264D-01 -0.48108134D-01 -0.70935415D-01
 -0.56206157D-01 -0.88115626D-02  0.33150812D-04 -0.72430691D-02 -0.15236925D-01
 -0.14946611D-01 -0.39615494D-02 -0.80926578D-02 -0.71303656D-02 -0.62028996D-03
 -0.16766422D-03 -0.11097382D-03  0.52997364D-02 -0.47989562D-02 -0.50078023D-03
 -0.37472046D-02 -0.24170126D-02 -0.14490743D-01  0.99924905D-04 -0.76988454D-04
 -0.22936451D-04 -0.40047371D-03 -0.21037494D-03 -0.63855419D-03  0.36561269D-01
  0.65939754D-01  0.97228128D-01  0.63924058D-01  0.52515290D-02 -0.95544001D-04
 -0.88236260D-02 -0.29130523D-01  0.34680433D-01 -0.47918315D-02 -0.73569222D-02
  0.11223922D-01 -0.70493791D-03  0.35686966D-03  0.20866334D-03 -0.80362332D-02
  0.47150313D-02  0.33212019D-02  0.43210554D-02 -0.31809035D-02 -0.24737329D-01
  0.22155120D-03 -0.35429640D-03  0.13274521D-03  0.47345008D-03 -0.31282707D-03
  0.30525905D-04
MO    4     MO 0.0        OCC NO =    2.0000000  ORB. ENERGY =    0.000000
  0.38208739D+00  0.71214807D+00  0.12075471D+01  0.18274942D+01  0.22796549D+01
  0.19562831D+01  0.74915249D+00  0.70740321D-03  0.75899722D-02  0.27978067D-01
  0.81806225D-01  0.98580479D-01 -0.11875063D+00 -0.27280038D-01 -0.45305061D-01
 -0.38937544D-02  0.26057318D+00  0.25266834D+00  0.17044857D+00  0.85622079D+00
  0.83024615D+00  0.56007915D+00 -0.34742488D+00 -0.33688527D+00 -0.22726081D+00
  0.58746127D-01  0.17476940D+00 -0.70995479D-01  0.95237897D-02  0.14275822D-01
 -0.91060187D-02  0.29975902D-03  0.11704091D-03 -0.18557776D-03 -0.26326098D-02
 -0.75813298D-02  0.10213940D-01  0.75955673D-03 -0.10859874D-01 -0.80707422D-01
  0.15467807D-02 -0.40974884D-02  0.25507077D-02 -0.22108775D-03 -0.25867921D-02
 -0.91708000D-02  0.37316508D-03 -0.44661498D-03  0.73449897D-04 -0.51040776D-04
 -0.15564613D-03  0.11750037D-02 -0.15672184D-02  0.44423977D-02 -0.42264298D-03
  0.35652447D-02 -0.89959464D-02  0.24760148D-02  0.11364106D-02 -0.43312468D-02
 -0.12080858D-02 -0.23734877D-03 -0.27587484D-04  0.15182481D-03 -0.22094556D-03
  0.24161977D-04 -0.32858084D-03 -0.42953467D-03  0.58600474D-04 -0.12689361D-03
  0.10923713D-02  0.18247293D-03 -0.24494188D-01 -0.44176277D-01 -0.65137895D-01
 -0.36064719D-01 -0.21399695D-02  0.12482500D-03  0.34971926D-02 -0.17443042D-01
 -0.21205642D-01  0.19127667D-02 -0.37114362D-02 -0.75229783D-02  0.29949644D-03
  0.25639702D-03 -0.36234027D-03  0.50290248D-02 -0.32379266D-02 -0.17910982D-02
  0.18092739D-02  0.11670134D-02 -0.15589080D-01 -0.38365254D-04  0.15639018D-03
 -0.11802492D-03  0.19336191D-03  0.10157595D-03 -0.53580058D-03  0.20548352D-01
  0.37059799D-01  0.54644653D-01  0.48648809D-01  0.69237362D-02 -0.15655813D-04
  0.42603375D-02 -0.11974758D-01  0.10983483D-01  0.23136542D-02 -0.57902781D-02
  0.44272938D-02  0.34036726D-03  0.12523983D-03 -0.27227772D-03 -0.31861184D-02
  0.26884707D-02  0.49764770D-03 -0.20863480D-02  0.15358451D-02 -0.88193020D-02
  0.11249445D-03 -0.13192194D-03  0.19427489D-04 -0.22859731D-03  0.15104322D-03
  0.21379762D-03
MO    5     MO 0.0        OCC NO =    2.0000000  ORB. ENERGY =    0.000000
  0.15134934D+00  0.28209028D+00  0.47832371D+00  0.72389208D+00  0.90299831D+00
  0.77490689D+00  0.29674817D+00 -0.14634379D-02 -0.15701728D-01 -0.57879526D-01
 -0.16923634D+00 -0.20393802D+00  0.24566495D+00  0.16871152D+00  0.83409348D-01
  0.69593882D-02  0.22635358D+00  0.21948683D+00  0.14806452D+00 -0.32796698D-02
 -0.31801765D-02 -0.21453283D-02  0.39312646D+00  0.38120043D+00  0.25715556D+00
  0.51031329D-01 -0.29031219D-02  0.83670692D-01  0.82730841D-02 -0.62447856D-03
  0.14696424D-01  0.26039336D-03  0.11461485D-05  0.29376154D-03 -0.10652535D-01
  0.22911490D-01 -0.12258955D-01  0.65980842D-03 -0.94337078D-02 -0.29846617D-02
 -0.29346850D-02  0.55590079D-02 -0.26243228D-02 -0.19205354D-03 -0.22470833D-02
  0.16704200D-02 -0.10412789D-03  0.22598490D-03 -0.12185701D-03 -0.44337878D-04
 -0.13520600D-03  0.99836742D-04 -0.13614045D-02 -0.47024982D-03  0.24144457D-02
  0.30970412D-02  0.50695567D-03  0.10547630D-02  0.98717218D-03  0.90379380D-03
 -0.82981001D-02 -0.20617909D-03 -0.23964575D-04  0.12268251D-04 -0.31380846D-03
  0.20988921D-04  0.30678342D-03 -0.22064270D-03  0.50904804D-04 -0.34358818D-03
  0.11620681D-02  0.15850979D-03  0.10374706D-01  0.18711210D-01  0.27589669D-01
 -0.91460505D-03 -0.49412250D-02 -0.10943255D-03  0.30379260D-02  0.11332837D-01
  0.14347300D-01  0.16615738D-02 -0.23902777D-02  0.28563552D-02  0.26016526D-03
 -0.49801723D-03  0.23803767D-03 -0.44717233D-03 -0.13095002D-02  0.17566726D-02
  0.15716722D-02  0.10137561D-02  0.38340642D-02  0.14555766D-03 -0.24963394D-03
  0.10407628D-03  0.16796878D-03  0.88236557D-04  0.15268149D-04  0.12013394D-01
  0.21666651D-01  0.31947464D-01 -0.18671307D-02 -0.51931493D-02 -0.10596858D-03
  0.37008514D-02 -0.12796695D-01  0.17592962D-01  0.20098150D-02  0.27867100D-02
  0.24753845D-02  0.29566875D-03  0.48445432D-03  0.22287973D-03 -0.74798179D-03
 -0.12386614D-02  0.19866432D-02 -0.18123597D-02  0.13341512D-02 -0.46372964D-02
  0.16368394D-03 -0.22802119D-03  0.64337250D-04 -0.19857691D-03  0.13120757D-03
  0.12558078D-03
END DATA
 TOTAL ENERGY =    -76.460276932789 THE VIRIAL(-V/T)=   2.00428878
