 22
GAUSSIAN              5 MOL ORBITALS    126 PRIMITIVES        3 NUCLEI   B3LYP   B3LYP   B3LYP
  O    1    (CENTRE  1)   0.00000000  0.00000000  0.10264236  CHARGE =  8.0
  H    2    (CENTRE  2)   0.00000000 -1.44255835 -1.09730160  CHARGE =  1.0
  H    3    (CENTRE  3)   0.00000000  1.44255835 -1.09730160  CHARGE =  1.0
CENTRE ASSIGNMENTS    1  1  1  1  1  1  1  1  1  1  1  1  1  1  1  1  1  1  1  1
CENTRE ASSIGNMENTS    1  1  1  1  1  1  1  1  1  1  1  1  1  1  1  1  1  1  1  1
CENTRE ASSIGNMENTS    1  1  1  1  1  1  1  1  1  1  1  1  1  1  1  1  1  1  1  1
CENTRE ASSIGNMENTS    1  1  1  1  1  1  1  1  1  1  1  1  2  2  2  2  2  2  2  2
CENTRE ASSIGNMENTS    2  2  2  2  2  2  2  2  2  2  2  2  2  2  2  2  2  2  2  3
CENTRE ASSIGNMENTS    3  3  3  3  3  3  3  3  3  3  3  3  3  3  3  3  3  3  3  3
CENTRE ASSIGNMENTS    3  3  3  3  3  3
TYPE ASSIGNMENTS      1  1  1  1  1  1  1  1  1  1  1  1  1  1  1  1  2  2  2  3
TYPE ASSIGNMENTS      3  3  4  4  4  2  3  4  2  3  4  2  3  4  5  6  7  8  9 10
TYPE ASSIGNMENTS      5  6  7  8  9 10  5  6  7  8  9 10 11 12 13 17 14 15 18 19
TYPE ASSIGNMENTS     16 20 11 12 13 17 14 15 18 19 16 20  1  1  1  1  1  1  2  3
TYPE ASSIGNMENTS      4  2  3  4  2  3  4  5  6  7  8  9 10  5  6  7  8  9 10  1
TYPE ASSIGNMENTS      1  1  1  1  1  2  3  4  2  3  4  2  3  4  5  6  7  8  9 10
TYPE ASSIGNMENTS      5  6  7  8  9 10
EXPONENTS  0.1533000D+05 0.2299000D+04 0.5224000D+03 0.1473000D+03 0.4755000D+02
EXPONENTS  0.1676000D+02 0.6207000D+01 0.5224000D+03 0.1473000D+03 0.4755000D+02
EXPONENTS  0.1676000D+02 0.6207000D+01 0.6882000D+00 0.1752000D+01 0.2384000D+00
EXPONENTS  0.7376000D-01 0.3446000D+02 0.7749000D+01 0.2280000D+01 0.3446000D+02
EXPONENTS  0.7749000D+01 0.2280000D+01 0.3446000D+02 0.7749000D+01 0.2280000D+01
EXPONENTS  0.7156000D+00 0.7156000D+00 0.7156000D+00 0.2140000D+00 0.2140000D+00
EXPONENTS  0.2140000D+00 0.5974000D-01 0.5974000D-01 0.5974000D-01 0.2314000D+01
EXPONENTS  0.2314000D+01 0.2314000D+01 0.2314000D+01 0.2314000D+01 0.2314000D+01
EXPONENTS  0.6450000D+00 0.6450000D+00 0.6450000D+00 0.6450000D+00 0.6450000D+00
EXPONENTS  0.6450000D+00 0.2140000D+00 0.2140000D+00 0.2140000D+00 0.2140000D+00
EXPONENTS  0.2140000D+00 0.2140000D+00 0.1428000D+01 0.1428000D+01 0.1428000D+01
EXPONENTS  0.1428000D+01 0.1428000D+01 0.1428000D+01 0.1428000D+01 0.1428000D+01
EXPONENTS  0.1428000D+01 0.1428000D+01 0.5000000D+00 0.5000000D+00 0.5000000D+00
EXPONENTS  0.5000000D+00 0.5000000D+00 0.5000000D+00 0.5000000D+00 0.5000000D+00
EXPONENTS  0.5000000D+00 0.5000000D+00 0.3387000D+02 0.5095000D+01 0.1159000D+01
EXPONENTS  0.3258000D+00 0.1027000D+00 0.2526000D-01 0.1407000D+01 0.1407000D+01
EXPONENTS  0.1407000D+01 0.3880000D+00 0.3880000D+00 0.3880000D+00 0.1020000D+00
EXPONENTS  0.1020000D+00 0.1020000D+00 0.1057000D+01 0.1057000D+01 0.1057000D+01
EXPONENTS  0.1057000D+01 0.1057000D+01 0.1057000D+01 0.2470000D+00 0.2470000D+00
EXPONENTS  0.2470000D+00 0.2470000D+00 0.2470000D+00 0.2470000D+00 0.3387000D+02
EXPONENTS  0.5095000D+01 0.1159000D+01 0.3258000D+00 0.1027000D+00 0.2526000D-01
EXPONENTS  0.1407000D+01 0.1407000D+01 0.1407000D+01 0.3880000D+00 0.3880000D+00
EXPONENTS  0.3880000D+00 0.1020000D+00 0.1020000D+00 0.1020000D+00 0.1057000D+01
EXPONENTS  0.1057000D+01 0.1057000D+01 0.1057000D+01 0.1057000D+01 0.1057000D+01
EXPONENTS  0.2470000D+00 0.2470000D+00 0.2470000D+00 0.2470000D+00 0.2470000D+00
EXPONENTS  0.2470000D+00
MO    1     MO 0.0        OCC NO =    2.0000000  ORB. ENERGY =    0.000000
 -0.30065367D+00 -0.56036901D+00 -0.95018440D+00 -0.14380031D+01 -0.17937955D+01
 -0.15393434D+01 -0.58948674D+00 -0.11431677D-02 -0.12265439D-01 -0.45212717D-01
 -0.13219933D+00 -0.15930662D+00  0.19190171D+00  0.81639196D-01  0.30872447D-01
 -0.98342646D-03 -0.36718565D-01 -0.35604657D-01 -0.24018691D-01 -0.12363872D+00
 -0.11988797D+00 -0.80875715D-01 -0.75587688D+00 -0.73294631D+00 -0.49444125D+00
 -0.82958489D-02 -0.26207875D-01 -0.16910381D+00 -0.13809580D-02 -0.28145772D-02
 -0.18221455D-01 -0.44984381D-04 -0.32873065D-04 -0.33907244D-03 -0.33679681D-01
  0.11045171D-01  0.22634510D-01 -0.27038372D-14  0.14688600D-02  0.11639378D-01
 -0.73716861D-02  0.29076141D-03  0.70809247D-02  0.86425613D-15  0.40144342D-03
  0.18480402D-02  0.19944097D-03 -0.54775677D-03  0.34831581D-03  0.50709824D-15
  0.29192639D-04 -0.16422710D-05  0.21693463D-03 -0.51595486D-03  0.53249924D-04
 -0.41831029D-03  0.14037316D-02  0.13067141D-01 -0.23249360D-03  0.14413298D-03
 -0.13226890D-01  0.10419436D-13  0.11268554D-04 -0.82621060D-05 -0.42563247D-03
 -0.17922474D-04  0.10547729D-03  0.72677683D-03 -0.15883189D-04 -0.80690974D-04
  0.55012057D-03 -0.14807128D-14  0.29432461D-01  0.53082656D-01  0.78270345D-01
  0.41703716D-01  0.35323648D-02 -0.12928842D-04 -0.47648154D-03  0.25948887D-01
  0.14191535D-01 -0.25950892D-03  0.76214299D-02  0.31938779D-02 -0.40647167D-04
 -0.86245439D-04 -0.44033462D-03 -0.41976119D-02  0.43881643D-02 -0.19055243D-03
 -0.23484633D-03 -0.18615159D-03  0.11258171D-01 -0.97091781D-04  0.96700075D-04
  0.39170612D-06 -0.23470163D-04 -0.15205049D-04 -0.37195302D-05  0.23274304D-01
  0.41976166D-01  0.61893832D-01  0.30609650D-01  0.21201365D-02  0.10950308D-04
 -0.47648154D-03 -0.23228596D-01  0.98128536D-02 -0.25950892D-03 -0.66122152D-02
  0.13945858D-02 -0.40647167D-04  0.21161233D-04 -0.47107781D-03 -0.31422373D-02
  0.40864561D-02 -0.94421878D-03  0.23484633D-03 -0.18615159D-03 -0.81501160D-02
 -0.69779835D-04  0.11735111D-03 -0.47571277D-04  0.23470163D-04 -0.15205049D-04
  0.12705191D-03
MO    2     MO 0.0        OCC NO =    2.0000000  ORB. ENERGY =    0.000000
  0.39640826D+00  0.73883981D+00  0.12528067D+01  0.18959898D+01  0.23650978D+01
  0.20296058D+01  0.77723118D+00  0.27958342D-04  0.29997466D-03  0.11057631D-02
  0.32331864D-02  0.38961468D-02 -0.46933217D-02  0.43465339D-01 -0.28457584D-01
 -0.53452861D-02  0.31730213D-01  0.30767633D-01  0.20755664D-01 -0.18177003D+00
 -0.17625578D+00 -0.11890111D+00 -0.91642379D+00 -0.88862281D+00 -0.59945970D+00
  0.71688274D-02 -0.38530050D-01 -0.19832907D+00  0.11933498D-02 -0.41379090D-02
 -0.24108050D-01  0.38873088D-04 -0.48329018D-04 -0.44501985D-03 -0.27191049D-01
  0.15587163D-02  0.25632333D-01 -0.11039033D-15 -0.12693100D-02  0.17111872D-01
 -0.36142945D-02 -0.38229479D-02  0.74372424D-02  0.39040271D-15 -0.34690585D-03
  0.27169346D-02  0.40083729D-03 -0.76580719D-03  0.36496989D-03 -0.20615409D-15
 -0.25226712D-04 -0.24144187D-05 -0.18746326D-03 -0.75854174D-03 -0.10729148D-02
  0.36148130D-03  0.20637251D-02  0.12141660D-01  0.20090850D-03  0.21190009D-03
 -0.89229156D-02 -0.35277522D-14 -0.97376799D-05 -0.12146706D-04 -0.51930916D-03
  0.15487640D-04  0.15506963D-03  0.12930578D-03  0.13725399D-04 -0.11862951D-03
  0.14286217D-02  0.46766564D-16  0.22131274D-01  0.39914664D-01  0.58854149D-01
  0.42293398D-01  0.67576789D-02  0.54914774D-04  0.41174977D-03  0.17249852D-01
  0.48627757D-02  0.22425368D-03  0.80872703D-02  0.18344664D-02  0.35125100D-04
  0.14623235D-03 -0.50737514D-03 -0.26531394D-02  0.37348841D-02 -0.10817447D-02
  0.20294159D-03  0.16086221D-03  0.60676691D-02 -0.14676670D-03  0.15930369D-03
 -0.12536995D-04  0.20281655D-04  0.13139387D-04  0.24787492D-04  0.13077732D-01
  0.23586228D-01  0.34777879D-01  0.25983227D-01  0.46814622D-02  0.90021201D-04
  0.41174977D-03 -0.13250561D-01 -0.15746338D-02  0.22425368D-03 -0.66035524D-02
 -0.81080012D-03  0.35125100D-04 -0.24191725D-03 -0.55257289D-03 -0.11015586D-02
  0.32913214D-02 -0.21897629D-02 -0.20294159D-03  0.16086221D-03 -0.14982972D-02
 -0.10661347D-03  0.18966424D-03 -0.83050768D-04 -0.20281655D-04  0.13139387D-04
  0.15653216D-03
MO    3     MO 0.0        OCC NO =    2.0000000  ORB. ENERGY =    0.000000
  0.28423653D-01  0.52977015D-01  0.89829973D-01  0.13594811D+00  0.16958455D+00
  0.14552878D+00  0.55729791D-01 -0.11007776D-03 -0.11810621D-02 -0.43536172D-02
 -0.12729721D-01 -0.15339933D-01  0.18478575D-01  0.14608417D-01  0.64454989D-03
 -0.56178418D-03 -0.42250322D+00 -0.40968600D+00 -0.27637176D+00  0.14077541D+01
  0.13650479D+01  0.92085327D+00 -0.15561445D+00 -0.15089367D+00 -0.10179198D+00
 -0.95456423D-01  0.29840363D+00 -0.34149502D-01 -0.15890032D-01  0.32046859D-01
 -0.39132718D-02 -0.51761407D-03  0.37429369D-03 -0.72699498D-04 -0.58371807D-02
  0.13286359D-02  0.45085448D-02  0.44494672D-14  0.16901479D-01 -0.13252630D+00
 -0.10390245D-02 -0.31691456D-03  0.13559391D-02 -0.59497812D-15  0.46192202D-02
 -0.21041840D-01  0.57496501D-04 -0.12385148D-03  0.66354979D-04  0.21295894D-14
  0.33590593D-03  0.18698946D-04  0.24961645D-02  0.58746773D-02 -0.73629239D-04
 -0.48132993D-02 -0.15982929D-01  0.24076041D-02 -0.26751943D-02 -0.16411024D-02
 -0.21867164D-02  0.36641122D-14  0.12966194D-03  0.94072582D-04 -0.92926149D-04
 -0.20622546D-03 -0.12009676D-02  0.69874949D-04 -0.18276037D-03  0.91874980D-03
  0.20890350D-03 -0.14712559D-14 -0.30885917D-01 -0.55704023D-01 -0.82135549D-01
 -0.56573235D-01 -0.72656901D-02  0.14220082D-03 -0.54826485D-02 -0.11701102D-01
 -0.23577071D-01 -0.29860468D-02 -0.44070962D-02 -0.99758343D-02 -0.46770779D-03
  0.38047239D-03 -0.26802941D-03  0.55098131D-02 -0.10151207D-02 -0.44946924D-02
 -0.27022660D-02 -0.21419586D-02 -0.16491810D-01  0.13635204D-03  0.14294464D-03
 -0.27929668D-03 -0.27006010D-03 -0.17495733D-03 -0.71551959D-03  0.39231043D-01
  0.70754801D-01  0.10432791D+00  0.69744134D-01  0.88139823D-02 -0.12968788D-03
 -0.54826485D-02 -0.19272206D-01  0.26278727D-01 -0.29860468D-02 -0.70838516D-02
  0.10510959D-01 -0.46770779D-03  0.36057830D-03  0.82013508D-04 -0.65067133D-02
  0.24201384D-02  0.40865749D-02  0.27022660D-02 -0.21419586D-02 -0.18896599D-01
 -0.17462259D-03 -0.92188664D-04  0.26681125D-03  0.27006010D-03 -0.17495733D-03
 -0.68874650D-03
MO    4     MO 0.0        OCC NO =    2.0000000  ORB. ENERGY =    0.000000
  0.81131079D-03  0.15121499D-02  0.25640627D-02  0.38804362D-02  0.48405383D-02
  0.41539020D-02  0.15907238D-02 -0.14573511D-03 -0.15636421D-02 -0.57638792D-02
 -0.16853245D-01 -0.20308979D-01  0.24464318D-01  0.15158674D-01  0.84124534D-02
  0.67686994D-03  0.17389181D+01  0.16861656D+01  0.11374774D+01  0.33905417D+00
  0.32876849D+00  0.22178528D+00  0.37122910D-01  0.35996735D-01  0.24283185D-01
  0.39287488D+00  0.71869792D-01  0.76450586D-02  0.65399419D-01  0.77184083D-02
  0.12517248D-02  0.21303707D-02  0.90147729D-04  0.21961080D-04 -0.75710485D-03
  0.15729432D-02 -0.81583831D-03  0.11102737D-14 -0.69562283D-01 -0.31918638D-01
 -0.36906755D-03  0.55359637D-03 -0.18452883D-03 -0.12747535D-14 -0.19011561D-01
 -0.50678763D-02 -0.22799201D-04  0.32856438D-04 -0.10057236D-04 -0.70862736D-14
 -0.13825052D-02  0.45035958D-05 -0.10273592D-01  0.14149018D-02  0.22669542D-03
  0.19810342D-01 -0.38494499D-02  0.74016781D-04  0.11010434D-01 -0.39525553D-03
 -0.75410306D-03 -0.15482771D-13 -0.53365630D-03  0.22657154D-04  0.66012107D-06
  0.84877269D-03 -0.28925013D-03  0.17338658D-04  0.75219620D-03  0.22127867D-03
 -0.19319021D-04  0.77816445D-14 -0.76146633D-02 -0.13733359D-01 -0.20249830D-01
 -0.15598645D-01 -0.24474513D-02  0.21997320D-04  0.22565217D-01 -0.28028604D-02
 -0.46534517D-02  0.12289826D-01 -0.16043251D-02 -0.22708877D-02  0.19249689D-02
  0.46770431D-04 -0.27891136D-04  0.13808402D-02 -0.49712080D-03 -0.88371941D-03
  0.11121854D-01  0.88157685D-02 -0.39632000D-02  0.46448633D-04  0.14117615D-04
 -0.60566247D-04  0.11115002D-02  0.72008084D-03 -0.17240902D-03  0.92728366D-02
  0.16723943D-01  0.24659444D-01  0.14824588D-01  0.14252988D-02 -0.43486415D-04
  0.22565217D-01 -0.46569857D-02  0.73541966D-02  0.12289826D-01 -0.11632419D-02
  0.26633067D-02  0.19249689D-02  0.13170983D-03  0.56415854D-04 -0.15133111D-02
  0.33025304D-03  0.11830580D-02 -0.11121854D-01  0.88157685D-02 -0.45600126D-02
 -0.28448853D-04 -0.42513674D-04  0.70962527D-04 -0.11115002D-02  0.72008084D-03
 -0.16580506D-03
MO    5     MO 0.0        OCC NO =    2.0000000  ORB. ENERGY =    0.000000
  0.10469567D+00  0.19513551D+00  0.33087967D+00  0.50075120D+00  0.62464765D+00
  0.53604062D+00  0.20527508D+00 -0.13192142D-02 -0.14154303D-01 -0.52175426D-01
 -0.15255789D+00 -0.18383967D+00  0.22145436D+00  0.14932340D+00  0.99068845D-01
  0.10300206D-01 -0.12435480D+00 -0.12058232D+00 -0.81344122D-01 -0.51634305D-01
 -0.50067907D-01 -0.33775515D-01  0.10371751D+01  0.10057110D+01  0.67844668D+00
 -0.28095559D-01 -0.10944997D-01  0.22225625D+00 -0.46768916D-02 -0.11754306D-02
  0.30028025D-01 -0.15234864D-03 -0.13728530D-04  0.54066247D-03  0.12251848D-01
  0.14617546D-01 -0.26869395D-01  0.41213223D-14  0.49745893D-02  0.48608654D-02
 -0.37627527D-03  0.77566521D-02 -0.73803769D-02  0.88574107D-15  0.13595688D-02
  0.77178309D-03 -0.47077344D-03  0.84657709D-03 -0.37580365D-03  0.13998987D-14
  0.98866735D-04 -0.68584932D-06  0.73469270D-03 -0.21547434D-03  0.31306737D-02
 -0.14166918D-02  0.58622984D-03 -0.79052888D-02 -0.78738629D-03  0.60193170D-04
 -0.14867325D-02  0.28900436D-14  0.38163223D-04 -0.34504410D-05  0.31812458D-03
 -0.60698059D-04  0.44049685D-04 -0.17655280D-03 -0.53791610D-04 -0.33698362D-04
 -0.77782093D-03 -0.30128738D-14 -0.45865891D-02 -0.82721024D-02 -0.12197210D-01
 -0.27435324D-01 -0.88570831D-02 -0.15770665D-03 -0.16137004D-02 -0.26991805D-02
  0.12083338D-01 -0.87887908D-03 -0.76475923D-02  0.16635281D-02 -0.13765979D-03
 -0.57588507D-03  0.52118795D-03  0.11515429D-02 -0.38452800D-02  0.26937371D-02
 -0.79535427D-03 -0.63043974D-03 -0.11635485D-02  0.17747064D-03 -0.27615457D-03
  0.98683925D-04 -0.79486420D-04 -0.51494953D-04  0.27560219D-04 -0.71583739D-02
 -0.12910422D-01 -0.19036410D-01 -0.32068455D-01 -0.94468614D-02 -0.14773418D-03
 -0.16137004D-02  0.38352349D-02  0.10254703D-01 -0.87887908D-03  0.80690630D-02
  0.91210333D-03 -0.13765979D-03  0.54870444D-03  0.50834890D-03  0.15922910D-02
 -0.39712801D-02  0.23789891D-02  0.79535427D-03 -0.63043974D-03  0.24615422D-02
  0.18887673D-03 -0.26753023D-03  0.78653506D-04  0.79486420D-04 -0.51494953D-04
  0.23946151D-04
END DATA
 TOTAL ENERGY =    -76.464267688260 THE VIRIAL(-V/T)=   2.00728923
