 22
GAUSSIAN              5 MOL ORBITALS    126 PRIMITIVES        3 NUCLEI   B3LYP   B3LYP   B3LYP
  O    1    (CENTRE  1)   0.00000000  0.00000000 -0.08633025  CHARGE =  8.0
  H    2    (CENTRE  2)   0.00000000 -1.44255835 -1.09730160  CHARGE =  1.0
  H    3    (CENTRE  3)   0.00000000  1.44255835 -1.09730160  CHARGE =  1.0
CENTRE ASSIGNMENTS    1  1  1  1  1  1  1  1  1  1  1  1  1  1  1  1  1  1  1  1
CENTRE ASSIGNMENTS    1  1  1  1  1  1  1  1  1  1  1  1  1  1  1  1  1  1  1  1
CENTRE ASSIGNMENTS    1  1  1  1  1  1  1  1  1  1  1  1  1  1  1  1  1  1  1  1
CENTRE ASSIGNMENTS    1  1  1  1  1  1  1  1  1  1  1  1  2  2  2  2  2  2  2  2
CENTRE ASSIGNMENTS    2  2  2  2  2  2  2  2  2  2  2  2  2  2  2  2  2  2  2  3
CENTRE ASSIGNMENTS    3  3  3  3  3  3  3  3  3  3  3  3  3  3  3  3  3  3  3  3
CENTRE ASSIGNMENTS    3  3  3  3  3  3
TYPE ASSIGNMENTS      1  1  1  1  1  1  1  1  1  1  1  1  1  1  1  1  2  2  2  3
TYPE ASSIGNMENTS      3  3  4  4  4  2  3  4  2  3  4  2  3  4  5  6  7  8  9 10
TYPE ASSIGNMENTS      5  6  7  8  9 10  5  6  7  8  9 10 11 12 13 17 14 15 18 19
TYPE ASSIGNMENTS     16 20 11 12 13 17 14 15 18 19 16 20  1  1  1  1  1  1  2  3
TYPE ASSIGNMENTS      4  2  3  4  2  3  4  5  6  7  8  9 10  5  6  7  8  9 10  1
TYPE ASSIGNMENTS      1  1  1  1  1  2  3  4  2  3  4  2  3  4  5  6  7  8  9 10
TYPE ASSIGNMENTS      5  6  7  8  9 10
EXPONENTS  0.1533000D+05 0.2299000D+04 0.5224000D+03 0.1473000D+03 0.4755000D+02
EXPONENTS  0.1676000D+02 0.6207000D+01 0.5224000D+03 0.1473000D+03 0.4755000D+02
EXPONENTS  0.1676000D+02 0.6207000D+01 0.6882000D+00 0.1752000D+01 0.2384000D+00
EXPONENTS  0.7376000D-01 0.3446000D+02 0.7749000D+01 0.2280000D+01 0.3446000D+02
EXPONENTS  0.7749000D+01 0.2280000D+01 0.3446000D+02 0.7749000D+01 0.2280000D+01
EXPONENTS  0.7156000D+00 0.7156000D+00 0.7156000D+00 0.2140000D+00 0.2140000D+00
EXPONENTS  0.2140000D+00 0.5974000D-01 0.5974000D-01 0.5974000D-01 0.2314000D+01
EXPONENTS  0.2314000D+01 0.2314000D+01 0.2314000D+01 0.2314000D+01 0.2314000D+01
EXPONENTS  0.6450000D+00 0.6450000D+00 0.6450000D+00 0.6450000D+00 0.6450000D+00
EXPONENTS  0.6450000D+00 0.2140000D+00 0.2140000D+00 0.2140000D+00 0.2140000D+00
EXPONENTS  0.2140000D+00 0.2140000D+00 0.1428000D+01 0.1428000D+01 0.1428000D+01
EXPONENTS  0.1428000D+01 0.1428000D+01 0.1428000D+01 0.1428000D+01 0.1428000D+01
EXPONENTS  0.1428000D+01 0.1428000D+01 0.5000000D+00 0.5000000D+00 0.5000000D+00
EXPONENTS  0.5000000D+00 0.5000000D+00 0.5000000D+00 0.5000000D+00 0.5000000D+00
EXPONENTS  0.5000000D+00 0.5000000D+00 0.3387000D+02 0.5095000D+01 0.1159000D+01
EXPONENTS  0.3258000D+00 0.1027000D+00 0.2526000D-01 0.1407000D+01 0.1407000D+01
EXPONENTS  0.1407000D+01 0.3880000D+00 0.3880000D+00 0.3880000D+00 0.1020000D+00
EXPONENTS  0.1020000D+00 0.1020000D+00 0.1057000D+01 0.1057000D+01 0.1057000D+01
EXPONENTS  0.1057000D+01 0.1057000D+01 0.1057000D+01 0.2470000D+00 0.2470000D+00
EXPONENTS  0.2470000D+00 0.2470000D+00 0.2470000D+00 0.2470000D+00 0.3387000D+02
EXPONENTS  0.5095000D+01 0.1159000D+01 0.3258000D+00 0.1027000D+00 0.2526000D-01
EXPONENTS  0.1407000D+01 0.1407000D+01 0.1407000D+01 0.3880000D+00 0.3880000D+00
EXPONENTS  0.3880000D+00 0.1020000D+00 0.1020000D+00 0.1020000D+00 0.1057000D+01
EXPONENTS  0.1057000D+01 0.1057000D+01 0.1057000D+01 0.1057000D+01 0.1057000D+01
EXPONENTS  0.2470000D+00 0.2470000D+00 0.2470000D+00 0.2470000D+00 0.2470000D+00
EXPONENTS  0.2470000D+00
MO    1     MO 0.0        OCC NO =    2.0000000  ORB. ENERGY =    0.000000
  0.20145403D-01  0.37547719D-01  0.63667434D-01  0.96353891D-01  0.12019388D+00
  0.10314423D+00  0.39498762D-01 -0.29842347D-03 -0.32018880D-02 -0.11802762D-01
 -0.34510583D-01 -0.41586931D-01  0.50095866D-01  0.33271004D-01 -0.10872573D-01
 -0.32421539D-02  0.15161114D+01  0.14701180D+01  0.99173293D+00  0.49768106D-01
  0.48258322D-01  0.32554779D-01 -0.74483065D+00 -0.72223518D+00 -0.48721559D+00
  0.34206759D+00  0.99987980D-02 -0.16160357D+00  0.55495137D-01  0.78343110D-03
 -0.18513014D-01  0.17470929D-02  0.55902140D-05 -0.38727933D-03 -0.24733092D-01
  0.63198678D-02  0.18413224D-01 -0.24685973D-13 -0.62859148D-01 -0.45563287D-02
 -0.33458752D-02 -0.22461101D-02  0.55919852D-02  0.62945903D-14 -0.15222306D-01
 -0.45299253D-03  0.50277817D-03 -0.81658501D-03  0.31380684D-03 -0.87922020D-16
 -0.91727894D-03  0.73462731D-04 -0.91765258D-02  0.25075741D-03  0.19828892D-03
  0.20962436D-01 -0.44385831D-03  0.96296216D-02  0.65671415D-02 -0.30841393D-03
 -0.10224488D-01  0.28161908D-14 -0.16740271D-03  0.58849853D-05 -0.38573024D-03
  0.12376205D-03 -0.16058683D-04 -0.11459048D-03  0.37844606D-03 -0.15962727D-05
  0.12717812D-02 -0.19107308D-14  0.15780449D-01  0.28460689D-01  0.41965269D-01
  0.27173494D-01  0.30916946D-02  0.35022371D-04  0.22449341D-01  0.16925168D-01
  0.17690804D-02  0.12236671D-01  0.58880702D-02 -0.64426106D-03  0.18583258D-02
 -0.24581913D-04 -0.61074027D-03 -0.19599058D-02  0.39499959D-02 -0.19900901D-02
  0.11290395D-01  0.77687779D-02  0.39030515D-02  0.35129817D-05  0.72149782D-04
 -0.75662764D-04  0.12336720D-02  0.73018802D-03 -0.46119458D-03  0.18422144D-01
  0.33225096D-01  0.48990385D-01  0.32212232D-01  0.36786108D-02  0.29227198D-04
  0.22449341D-01 -0.18748330D-01  0.37699548D-02  0.12236671D-01 -0.65438305D-02
  0.12445603D-03  0.18583258D-02  0.32988693D-04 -0.59727344D-03 -0.25072539D-02
  0.43538013D-02 -0.18465475D-02 -0.11290395D-01  0.77687779D-02 -0.55151659D-02
  0.81304426D-05  0.60266386D-04 -0.68396829D-04 -0.12336720D-02  0.73018802D-03
  0.43091669D-03
MO    2     MO 0.0        OCC NO =    2.0000000  ORB. ENERGY =    0.000000
  0.11146614D+00  0.20775456D+00  0.35227705D+00  0.53313386D+00  0.66504246D+00
  0.57070537D+00  0.21854984D+00 -0.48166843D-03 -0.51679862D-02 -0.19050170D-01
 -0.55701580D-01 -0.67123113D-01  0.80856902D-01  0.62953264D-01 -0.14273172D-01
 -0.47238209D-02 -0.93491518D+00 -0.90655323D+00 -0.61155546D+00  0.55572163D-01
  0.53886305D-01  0.36351383D-01 -0.11258727D+01 -0.10917178D+01 -0.73646637D+00
 -0.21093713D+00  0.11164878D-01 -0.24432190D+00 -0.34221263D-01  0.87479642D-03
 -0.27910092D-01 -0.10773507D-02  0.62421560D-05 -0.58479985D-03 -0.38389774D-01
  0.10667240D-01  0.27722534D-01  0.46281779D-14  0.38762305D-01 -0.50876970D-02
 -0.51722344D-02 -0.32982734D-02  0.84705078D-02 -0.82526339D-16  0.93868865D-02
 -0.50582143D-03  0.76394399D-03 -0.12413067D-02  0.47736268D-03  0.73626567D-15
  0.56564315D-03  0.82030103D-04  0.56587356D-02  0.28000125D-03  0.47796358D-03
 -0.12926557D-01 -0.49562196D-03  0.14938023D-01 -0.40496500D-02 -0.34438178D-03
 -0.16371914D-01 -0.16032160D-16  0.10322944D-03  0.65713041D-05 -0.62304744D-03
 -0.76318287D-04 -0.17931479D-04 -0.22116108D-03 -0.23337004D-03 -0.17824333D-05
  0.20903034D-02 -0.10537220D-14  0.24822996D-01  0.44769296D-01  0.66012301D-01
  0.42121117D-01  0.46443522D-02  0.48867400D-04 -0.13843462D-01  0.26233416D-01
  0.33715474D-02 -0.75457847D-02  0.88592400D-02 -0.87438462D-03 -0.11459429D-02
 -0.62211054D-04 -0.93135889D-03 -0.28984722D-02  0.58498389D-02 -0.29513667D-02
 -0.69622599D-02 -0.47906431D-02  0.58263271D-02  0.13635962D-04  0.99710210D-04
 -0.11334617D-03 -0.76074797D-03 -0.45027291D-03 -0.70864387D-03  0.27772772D-01
  0.50089338D-01  0.73856700D-01  0.47747482D-01  0.52997157D-02  0.42396382D-04
 -0.13843462D-01 -0.28269199D-01  0.56057678D-02 -0.75457847D-02 -0.95914764D-02
 -0.16018196D-04 -0.11459429D-02  0.71598249D-04 -0.91632154D-03 -0.35096531D-02
  0.63007370D-02 -0.27910838D-02  0.69622599D-02 -0.47906431D-02 -0.76264495D-02
  0.18791920D-04  0.86440949D-04 -0.10523287D-03  0.76074797D-03 -0.45027291D-03
  0.67483492D-03
MO    3     MO 0.0        OCC NO =    2.0000000  ORB. ENERGY =    0.000000
  0.49464671D+00  0.92194014D+00  0.15632791D+01  0.23658566D+01  0.29512197D+01
  0.25325855D+01  0.96984572D+00  0.46346047D-03  0.49726267D-02  0.18330038D-01
  0.53595957D-01  0.64585735D-01 -0.77800362D-01  0.10173758D-01 -0.83304584D-02
  0.55405155D-03  0.14915545D+00  0.14463061D+00  0.97566955D-01  0.89212850D-01
  0.86506455D-01  0.58356743D-01  0.26982510D+00  0.26163958D+00  0.17650051D+00
  0.33652703D-01  0.17923553D-01  0.58895373D-01  0.54596267D-02  0.14043557D-02
  0.55206513D-02  0.17187948D-03  0.10020854D-04  0.11327771D-03  0.10334392D-01
 -0.38354610D-02 -0.64989305D-02  0.30661576D-14 -0.61841000D-02 -0.81675415D-02
  0.20890023D-02 -0.58586332D-04 -0.20304160D-02 -0.11803920D-14 -0.14975746D-02
 -0.81202115D-03 -0.20778407D-03  0.31762009D-03 -0.10983601D-03 -0.45679414D-15
 -0.90242152D-04  0.13168714D-03 -0.90278910D-03  0.44950040D-03  0.27091330D-03
  0.20622901D-02 -0.79564741D-03 -0.29899255D-02  0.64607717D-03 -0.55285378D-03
  0.21771856D-02 -0.64320871D-14 -0.16469124D-04  0.10549252D-04  0.46631914D-04
  0.12175744D-04 -0.28786325D-04 -0.20025766D-03  0.37231627D-04 -0.28614318D-05
  0.60361919D-04  0.11704065D-14 -0.12528073D-01 -0.22594896D-01 -0.33316162D-01
 -0.19879510D-01 -0.15957440D-02  0.52494374D-05  0.22085723D-02 -0.13592505D-01
 -0.67652956D-02  0.12038471D-02 -0.42489610D-02 -0.18436821D-02  0.18282260D-03
  0.34893517D-04  0.16276289D-03  0.31052093D-02 -0.35766355D-02  0.47142619D-03
  0.11107521D-02  0.76429448D-03 -0.81957363D-02 -0.10123624D-04  0.10222916D-04
 -0.99291462D-07  0.12136898D-03  0.71836096D-04  0.11342249D-03 -0.77926469D-02
 -0.14054360D-01 -0.20723145D-01 -0.10847216D-01 -0.54365527D-03 -0.51388205D-05
  0.22085723D-02  0.10324357D-01 -0.31785868D-02  0.12038471D-02  0.30734643D-02
 -0.46570239D-03  0.18282260D-03 -0.19823769D-04  0.18690313D-03  0.21240491D-02
 -0.28527857D-02  0.72873658D-03 -0.11107521D-02  0.76429448D-03  0.53059072D-02
 -0.18464991D-05 -0.11078911D-04  0.12925410D-04 -0.12136898D-03  0.71836096D-04
 -0.16769774D-03
MO    4     MO 0.0        OCC NO =    2.0000000  ORB. ENERGY =    0.000000
 -0.35436545D-01 -0.66047894D-01 -0.11199349D+00 -0.16949023D+00 -0.21142570D+00
 -0.18143471D+00 -0.69479855D-01 -0.42922073D-04 -0.46052567D-03 -0.16975843D-02
 -0.49636371D-02 -0.59814240D-02  0.72052591D-02  0.25995277D-03  0.42510645D-02
  0.52594949D-03 -0.23782325D-01 -0.23060855D-01 -0.15556717D-01  0.14735075D+01
  0.14288066D+01  0.96386450D+00  0.75489311D-01  0.73199239D-01  0.49379774D-01
 -0.53658080D-02  0.29603907D+00  0.16297967D-01 -0.87051875D-03  0.23195409D-01
  0.21046174D-02 -0.27405593D-04  0.16551207D-03  0.43845581D-04  0.17250255D-02
  0.23044886D-03 -0.19554743D-02 -0.18012656D-14  0.98603355D-03 -0.13490135D+00
  0.13646347D-03  0.41955409D-03 -0.55601756D-03 -0.59376753D-17  0.23878314D-03
 -0.13411961D-01 -0.44692710D-04  0.75402894D-04 -0.30710184D-04 -0.61921606D-15
  0.14388802D-04  0.21750453D-02  0.14394663D-03  0.74242915D-02  0.26328940D-04
 -0.32882509D-03 -0.13141520D-01 -0.83927201D-03 -0.10301479D-03 -0.91313548D-02
  0.76028519D-03 -0.12305368D-13  0.26259453D-05  0.17423950D-03  0.31231677D-04
 -0.19413807D-05 -0.47545691D-03  0.22671510D-04 -0.59364552D-05 -0.47261591D-04
 -0.11636654D-03  0.10055636D-14 -0.39963670D-01 -0.72076125D-01 -0.10627620D+00
 -0.76847477D-01 -0.91379100D-02  0.79044632D-04 -0.35214928D-03 -0.27768862D-01
 -0.29106023D-01 -0.19194929D-03 -0.10211867D-01 -0.11186404D-01 -0.29150437D-04
  0.11152777D-03 -0.13732126D-03  0.81418953D-02 -0.62423211D-02 -0.18995743D-02
 -0.17710561D-03 -0.12186413D-03 -0.23769014D-01 -0.64159690D-04  0.16155512D-03
 -0.97395430D-04 -0.19351868D-04 -0.11454019D-04 -0.40955745D-03  0.38250248D-01
  0.68985898D-01  0.10171967D+00  0.72336775D-01  0.82391907D-02 -0.92535761D-04
 -0.35214928D-03 -0.26210349D-01  0.30134796D-01 -0.19194929D-03 -0.92035349D-02
  0.11573361D-01 -0.29150437D-04  0.13737568D-03  0.26139740D-03 -0.80636950D-02
  0.57133344D-02  0.23503606D-02  0.17710561D-03 -0.12186413D-03 -0.23961607D-01
  0.72551625D-04 -0.19028210D-03  0.11773048D-03  0.19351868D-04 -0.11454019D-04
 -0.48689403D-03
MO    5     MO 0.0        OCC NO =    2.0000000  ORB. ENERGY =    0.000000
 -0.21946277D-01 -0.40904251D-01 -0.69358906D-01 -0.10496733D+00 -0.13093847D+00
 -0.11236469D+00 -0.43029705D-01 -0.15660108D-02 -0.16802269D-01 -0.61936326D-01
 -0.18109818D+00 -0.21823212D+00  0.26288371D+00  0.15889608D+00  0.10321518D+00
  0.98752974D-02  0.43437990D-01  0.42120239D-01  0.28414064D-01 -0.40560826D-01
 -0.39330358D-01 -0.26532027D-01  0.87941848D+00  0.85274010D+00  0.57525344D+00
  0.98005523D-02 -0.81489842D-02  0.18858591D+00  0.15899869D-02 -0.63849351D-03
  0.27644917D-01  0.50055826D-04 -0.45560042D-05  0.56556711D-03  0.24525285D-02
  0.22305392D-01 -0.24757921D-01  0.73092218D-14 -0.18009726D-02  0.37133914D-02
 -0.16396198D-02  0.78379226D-02 -0.61983028D-02 -0.44834780D-14 -0.43613313D-03
  0.36918727D-03 -0.41704561D-03  0.73520533D-03 -0.31815973D-03 -0.10700858D-14
 -0.26280889D-04 -0.59871860D-04 -0.26291594D-03 -0.20436638D-03  0.24505115D-02
  0.60059314D-03  0.36174292D-03 -0.47836080D-02  0.18815467D-03  0.25135624D-03
 -0.25679266D-02 -0.58944110D-14 -0.47962421D-05 -0.47962417D-05 -0.89763500D-04
  0.35458971D-05  0.13087769D-04 -0.60459001D-04  0.10842829D-04  0.13009565D-05
  0.32974950D-03  0.37435394D-14  0.46199204D-02  0.83322167D-02  0.12285849D-01
 -0.15673977D-01 -0.74723720D-02 -0.14535794D-03  0.64319435D-03  0.53540146D-02
  0.18114552D-01  0.35059193D-03 -0.58344875D-02  0.38733972D-02  0.53242751D-04
 -0.53974204D-03  0.63690569D-03 -0.18223560D-03 -0.30966602D-02  0.32788958D-02
  0.32348023D-03  0.22258266D-03  0.43007796D-02  0.17050797D-03 -0.31882604D-03
  0.14831807D-03  0.35345840D-04  0.20920561D-04  0.23119426D-03  0.24669478D-02
  0.44492420D-02  0.65604048D-02 -0.19780530D-01 -0.79507065D-02 -0.14063489D-03
  0.64319435D-03 -0.38681441D-02  0.16483846D-01  0.35059193D-03  0.63689299D-02
  0.32468956D-02  0.53242751D-04  0.53289055D-03  0.62593028D-03  0.26385113D-03
 -0.34257602D-02  0.31619091D-02 -0.32348023D-03  0.22258266D-03 -0.29869122D-02
  0.16674476D-03 -0.30914111D-03  0.14239636D-03 -0.35345840D-04  0.20920561D-04
 -0.20651790D-03
END DATA
 TOTAL ENERGY =    -76.464152513367 THE VIRIAL(-V/T)=   2.00450102
