 30
GAUSSIAN              5 MOL ORBITALS    126 PRIMITIVES        3 NUCLEI   B3LYP   B3LYP   B3LYP
  O    1    (CENTRE  1)   0.09448631  0.00000000  0.00815606  CHARGE =  8.0
  H    2    (CENTRE  2)   0.09448631 -1.44255835 -1.09730160  CHARGE =  1.0
  H    3    (CENTRE  3)   0.00000000  1.44255835 -1.09730160  CHARGE =  1.0
CENTRE ASSIGNMENTS    1  1  1  1  1  1  1  1  1  1  1  1  1  1  1  1  1  1  1  1
CENTRE ASSIGNMENTS    1  1  1  1  1  1  1  1  1  1  1  1  1  1  1  1  1  1  1  1
CENTRE ASSIGNMENTS    1  1  1  1  1  1  1  1  1  1  1  1  1  1  1  1  1  1  1  1
CENTRE ASSIGNMENTS    1  1  1  1  1  1  1  1  1  1  1  1  2  2  2  2  2  2  2  2
CENTRE ASSIGNMENTS    2  2  2  2  2  2  2  2  2  2  2  2  2  2  2  2  2  2  2  3
CENTRE ASSIGNMENTS    3  3  3  3  3  3  3  3  3  3  3  3  3  3  3  3  3  3  3  3
CENTRE ASSIGNMENTS    3  3  3  3  3  3
TYPE ASSIGNMENTS      1  1  1  1  1  1  1  1  1  1  1  1  1  1  1  1  2  2  2  3
TYPE ASSIGNMENTS      3  3  4  4  4  2  3  4  2  3  4  2  3  4  5  6  7  8  9 10
TYPE ASSIGNMENTS      5  6  7  8  9 10  5  6  7  8  9 10 11 12 13 17 14 15 18 19
TYPE ASSIGNMENTS     16 20 11 12 13 17 14 15 18 19 16 20  1  1  1  1  1  1  2  3
TYPE ASSIGNMENTS      4  2  3  4  2  3  4  5  6  7  8  9 10  5  6  7  8  9 10  1
TYPE ASSIGNMENTS      1  1  1  1  1  2  3  4  2  3  4  2  3  4  5  6  7  8  9 10
TYPE ASSIGNMENTS      5  6  7  8  9 10
EXPONENTS  0.1533000D+05 0.2299000D+04 0.5224000D+03 0.1473000D+03 0.4755000D+02
EXPONENTS  0.1676000D+02 0.6207000D+01 0.5224000D+03 0.1473000D+03 0.4755000D+02
EXPONENTS  0.1676000D+02 0.6207000D+01 0.6882000D+00 0.1752000D+01 0.2384000D+00
EXPONENTS  0.7376000D-01 0.3446000D+02 0.7749000D+01 0.2280000D+01 0.3446000D+02
EXPONENTS  0.7749000D+01 0.2280000D+01 0.3446000D+02 0.7749000D+01 0.2280000D+01
EXPONENTS  0.7156000D+00 0.7156000D+00 0.7156000D+00 0.2140000D+00 0.2140000D+00
EXPONENTS  0.2140000D+00 0.5974000D-01 0.5974000D-01 0.5974000D-01 0.2314000D+01
EXPONENTS  0.2314000D+01 0.2314000D+01 0.2314000D+01 0.2314000D+01 0.2314000D+01
EXPONENTS  0.6450000D+00 0.6450000D+00 0.6450000D+00 0.6450000D+00 0.6450000D+00
EXPONENTS  0.6450000D+00 0.2140000D+00 0.2140000D+00 0.2140000D+00 0.2140000D+00
EXPONENTS  0.2140000D+00 0.2140000D+00 0.1428000D+01 0.1428000D+01 0.1428000D+01
EXPONENTS  0.1428000D+01 0.1428000D+01 0.1428000D+01 0.1428000D+01 0.1428000D+01
EXPONENTS  0.1428000D+01 0.1428000D+01 0.5000000D+00 0.5000000D+00 0.5000000D+00
EXPONENTS  0.5000000D+00 0.5000000D+00 0.5000000D+00 0.5000000D+00 0.5000000D+00
EXPONENTS  0.5000000D+00 0.5000000D+00 0.3387000D+02 0.5095000D+01 0.1159000D+01
EXPONENTS  0.3258000D+00 0.1027000D+00 0.2526000D-01 0.1407000D+01 0.1407000D+01
EXPONENTS  0.1407000D+01 0.3880000D+00 0.3880000D+00 0.3880000D+00 0.1020000D+00
EXPONENTS  0.1020000D+00 0.1020000D+00 0.1057000D+01 0.1057000D+01 0.1057000D+01
EXPONENTS  0.1057000D+01 0.1057000D+01 0.1057000D+01 0.2470000D+00 0.2470000D+00
EXPONENTS  0.2470000D+00 0.2470000D+00 0.2470000D+00 0.2470000D+00 0.3387000D+02
EXPONENTS  0.5095000D+01 0.1159000D+01 0.3258000D+00 0.1027000D+00 0.2526000D-01
EXPONENTS  0.1407000D+01 0.1407000D+01 0.1407000D+01 0.3880000D+00 0.3880000D+00
EXPONENTS  0.3880000D+00 0.1020000D+00 0.1020000D+00 0.1020000D+00 0.1057000D+01
EXPONENTS  0.1057000D+01 0.1057000D+01 0.1057000D+01 0.1057000D+01 0.1057000D+01
EXPONENTS  0.2470000D+00 0.2470000D+00 0.2470000D+00 0.2470000D+00 0.2470000D+00
EXPONENTS  0.2470000D+00
MO    1     MO 0.0        OCC NO =    2.0000000  ORB. ENERGY =    0.000000
 -0.69131166D-01 -0.12884913D+00 -0.21848180D+00 -0.33064898D+00 -0.41245853D+00
 -0.35395079D+00 -0.13554435D+00 -0.72129733D-03 -0.77390471D-02 -0.28527585D-01
 -0.83412984D-01 -0.10051670D+00  0.12108302D+00  0.65996169D-01 -0.12223155D-03
 -0.38518972D-02 -0.27190960D+00 -0.26366085D+00 -0.17786405D+00 -0.77000766D+00
 -0.74664841D+00 -0.50368461D+00 -0.10323642D+01 -0.10010460D+01 -0.67529975D+00
 -0.61558122D-01 -0.15940184D+00 -0.22555257D+00 -0.99793953D-02 -0.15101264D-01
 -0.25191450D-01 -0.31710643D-03 -0.15648739D-03 -0.49185096D-03 -0.37524454D-01
  0.10140855D-01  0.27383599D-01 -0.63229369D-04  0.13587816D-01  0.71788011D-01
 -0.61270138D-02 -0.22200582D-02  0.83470720D-02  0.13620100D-03  0.36109834D-02
  0.93482622D-02  0.55505152D-03 -0.97319314D-03  0.41814162D-03  0.76122575D-04
  0.18343893D-03 -0.54100622D-03  0.18776947D-02 -0.36650623D-02 -0.73519720D-04
 -0.29104295D-02  0.81418416D-02  0.14389337D-01 -0.27226544D-02  0.28533453D-02
 -0.14168777D-01  0.14578688D-02  0.48675834D-04 -0.66680554D-04 -0.55506745D-03
  0.18352687D-04  0.44443405D-03  0.21313116D-03 -0.16438019D-03 -0.24439239D-03
  0.14520712D-02 -0.13681509D-03  0.47201263D-01  0.85129421D-01  0.12552328D+00
  0.80656143D-01  0.91742772D-02 -0.22977342D-04 -0.37842858D-02  0.38015197D-01
  0.22772240D-01 -0.20422811D-02  0.13184095D-01  0.70516995D-02 -0.31598640D-03
 -0.15386165D-03 -0.60852034D-03 -0.75160762D-02  0.75366799D-02 -0.20603714D-04
 -0.18685715D-02 -0.13163304D-02  0.20250855D-01 -0.77936435D-04  0.41589300D-04
  0.36347135D-04 -0.19338981D-03 -0.10247218D-03 -0.48326533D-04  0.80403901D-02
  0.14501175D-01  0.21381974D-01  0.82355985D-02  0.48039611D-03  0.99396412D-04
 -0.32347893D-02 -0.16241373D-01 -0.61974829D-02 -0.19264224D-02 -0.53028964D-02
 -0.45324521D-02 -0.32384756D-03 -0.15065628D-03 -0.80698727D-03 -0.18223797D-03
  0.38134987D-02 -0.36312607D-02  0.15658062D-02 -0.16536804D-02  0.18374205D-02
 -0.34393577D-04  0.20918347D-03 -0.17478989D-03  0.19480072D-03 -0.14740401D-03
  0.64660047D-03
MO    2     MO 0.0        OCC NO =    2.0000000  ORB. ENERGY =    0.000000
  0.76268483D-01  0.14215191D+00  0.24103854D+00  0.36478621D+00  0.45504204D+00
  0.39049377D+00  0.14953837D+00 -0.41635118D-03 -0.44671750D-02 -0.16466848D-01
 -0.48148098D-01 -0.58020799D-01  0.69892201D-01  0.51809727D-01  0.45925739D-02
 -0.14852731D-02 -0.76112697D+00 -0.73803713D+00 -0.49787549D+00  0.11321695D+01
  0.10978235D+01  0.74058527D+00 -0.45927618D+00 -0.44534340D+00 -0.30042603D+00
 -0.17103041D+00  0.23386116D+00 -0.10026388D+00 -0.27332144D-01  0.21662286D-01
 -0.10735216D-01 -0.85354062D-03  0.19552004D-03 -0.19951995D-03 -0.18036947D-01
  0.62362593D-02  0.11800688D-01 -0.61928829D-02  0.34991255D-01 -0.10709234D+00
 -0.28642970D-02 -0.83488422D-03  0.36991812D-02 -0.74530780D-03  0.84754571D-02
 -0.13868273D-01  0.27822604D-03 -0.46226796D-03  0.18404192D-03  0.80860344D-04
  0.45905904D-03  0.81752741D-03  0.48846995D-02  0.51076556D-02  0.32785381D-03
 -0.10431251D-01 -0.10691855D-01  0.65956118D-02 -0.42228475D-02 -0.46311116D-02
 -0.75791733D-02  0.15448190D-02  0.17294579D-03  0.87224192D-04 -0.29574791D-03
 -0.23589111D-03 -0.64878777D-03  0.14918520D-04 -0.28294627D-03  0.38711519D-03
  0.87232521D-03  0.43227225D-04 -0.15768084D-01 -0.28438390D-01 -0.41932389D-01
 -0.33626530D-01 -0.45691787D-02  0.10546597D-03 -0.10393877D-01 -0.33324606D-02
 -0.16932772D-01 -0.55991154D-02 -0.20065702D-02 -0.79843258D-02 -0.84633297D-03
  0.15424179D-03 -0.46833532D-03  0.39890976D-02 -0.53671060D-03 -0.34523870D-02
 -0.51135424D-02 -0.38230765D-02 -0.12695060D-01  0.32244922D-04  0.15078485D-03
 -0.18302977D-03 -0.54561909D-03 -0.31453076D-03 -0.63729384D-03  0.43646122D-01
  0.78717578D-01  0.11606902D+00  0.76223731D-01  0.86625772D-02 -0.80032998D-04
 -0.76017303D-02 -0.30454960D-01  0.26921012D-01 -0.45552290D-02 -0.10454204D-01
  0.96047812D-02 -0.83361237D-03  0.21985470D-03 -0.16159140D-03 -0.75525948D-02
  0.55204374D-02  0.20321574D-02  0.31088267D-02 -0.21011282D-02 -0.21047996D-01
 -0.94393815D-04 -0.48796989D-04  0.14319080D-03  0.49316015D-03 -0.28686042D-03
 -0.32104041D-03
MO    3     MO 0.0        OCC NO =    2.0000000  ORB. ENERGY =    0.000000
 -0.27629121D-01 -0.51496138D-01 -0.87318938D-01 -0.13214793D+00 -0.16484412D+00
 -0.14146078D+00 -0.54171965D-01 -0.17500370D-03 -0.18776749D-02 -0.69214632D-02
 -0.20237952D-01 -0.24387717D-01  0.29377589D-01  0.14663414D-01 -0.72265805D-02
 -0.22002461D-02  0.15742934D+01  0.15265351D+01  0.10297915D+01  0.47120430D+00
  0.45690967D+00  0.30822856D+00 -0.53816541D+00 -0.52183942D+00 -0.35202979D+00
  0.35595514D+00  0.98527702D-01 -0.11784396D+00  0.58951301D-01  0.10127365D-01
 -0.14458184D-01  0.19017635D-02  0.14376937D-03 -0.31575142D-03 -0.17860924D-01
  0.25481073D-02  0.15312817D-01 -0.30829540D-02 -0.61996144D-01 -0.41261953D-01
 -0.30411241D-02 -0.14212847D-02  0.44624088D-02 -0.31036013D-03 -0.16244150D-01
 -0.56776805D-02  0.19303811D-03 -0.43006482D-03  0.23702670D-03  0.57712107D-04
 -0.11358632D-02  0.24840162D-03 -0.91657588D-02  0.26164906D-02 -0.61880059D-03
  0.19420419D-01 -0.64836747D-02  0.80630258D-02  0.80768576D-02 -0.13657973D-02
 -0.62066240D-02  0.11897906D-02 -0.32747343D-03  0.50415219D-04 -0.24481182D-03
  0.50643922D-03 -0.31525600D-03  0.18090554D-03  0.47598106D-03  0.16401034D-03
  0.55352991D-03 -0.71022641D-05 -0.44623489D-04 -0.80480301D-04 -0.11866816D-03
 -0.10925617D-02  0.59940658D-04  0.58894731D-04  0.21930699D-01  0.51377330D-02
 -0.67972489D-02  0.11966713D-01  0.22604808D-02 -0.34310391D-02  0.18550328D-02
  0.17669842D-03 -0.45401713D-03  0.52319498D-03  0.17650627D-02 -0.22882576D-02
  0.10940798D-01  0.81003945D-02 -0.28336129D-02 -0.21590731D-04  0.14918863D-03
 -0.12759790D-03  0.11430948D-02  0.72804180D-03 -0.34093845D-03  0.21491741D-01
  0.38761240D-01  0.57153426D-01  0.38701902D-01  0.48615102D-02 -0.83768738D-05
  0.23222850D-01 -0.15666704D-01  0.90914398D-02  0.12469189D-01 -0.58496812D-02
  0.29432954D-02  0.18583928D-02  0.98887481D-04 -0.34239077D-03 -0.28108024D-02
  0.31085453D-02 -0.29774296D-03 -0.11909394D-01  0.87794293D-02 -0.87571872D-02
  0.19310729D-04 -0.10483637D-04 -0.88270915D-05 -0.11635873D-02  0.72359835D-03
  0.46017649D-04
MO    4     MO 0.0        OCC NO =    2.0000000  ORB. ENERGY =    0.000000
  0.45714395D+00  0.85204117D+00  0.14447555D+01  0.21864839D+01  0.27274663D+01
  0.23405718D+01  0.89631467D+00  0.92846731D-03  0.99618449D-02  0.36721236D-01
  0.10737074D+00  0.12938696D+00 -0.15586031D+00 -0.41959470D-01 -0.59770213D-01
 -0.57854254D-02  0.64031641D-01  0.62089152D-01  0.41884975D-01 -0.20835257D+00
 -0.20203190D+00 -0.13628953D+00 -0.54725886D+00 -0.53065701D+00 -0.35797808D+00
  0.14652245D-01 -0.43093396D-01 -0.11608286D+00  0.24210313D-02 -0.40240801D-02
 -0.16479877D-01  0.83380300D-04 -0.38010759D-04 -0.32324065D-03 -0.57964863D-02
 -0.87325138D-02  0.14529000D-01  0.10330256D-02 -0.22149503D-02  0.19660509D-01
  0.97855338D-03 -0.48583750D-02  0.38798217D-02  0.49417755D-03 -0.68958939D-03
  0.25638393D-02  0.29891786D-03 -0.49674838D-03  0.19783052D-03  0.46059177D-04
 -0.60335411D-04 -0.14968409D-03 -0.35922332D-03 -0.95066387D-03 -0.12149022D-02
  0.12083484D-02  0.20551963D-02  0.45193470D-02 -0.13067848D-03  0.79679534D-03
 -0.87464034D-03  0.23819305D-03 -0.31348295D-04 -0.16445142D-04 -0.19024964D-03
  0.69446667D-04  0.11721601D-03 -0.23657319D-03  0.24598218D-04 -0.67880584D-04
  0.80732212D-03 -0.85775209D-04  0.53159650D-02  0.95875617D-02  0.14136854D-01
  0.22294960D-01  0.58305346D-02  0.68940119D-04  0.85764009D-03  0.15299005D-02
 -0.49412470D-02  0.45173120D-03  0.44198328D-02 -0.29485543D-03  0.71615808D-04
  0.23624747D-03 -0.34171720D-03 -0.40696367D-03  0.16883686D-02 -0.12814049D-02
  0.40699405D-03  0.34721353D-03 -0.29509089D-03 -0.90168484D-04  0.13372189D-03
 -0.43553403D-04  0.42212290D-04  0.41446877D-04 -0.35339239D-04 -0.54916938D-02
 -0.99044959D-02 -0.14604173D-01  0.23096894D-02  0.34387816D-02  0.10327014D-03
  0.41552611D-03  0.45503810D-02 -0.12891917D-01  0.53050032D-03 -0.21958741D-02
 -0.34813252D-02  0.87126294D-04 -0.31251441D-03 -0.39527842D-03  0.16510682D-02
  0.62174592D-03 -0.22728141D-02 -0.21610070D-03 -0.13201296D-03  0.63741383D-02
 -0.71554409D-04  0.17422237D-03 -0.10266796D-03 -0.65705143D-04  0.26997599D-04
  0.20474414D-03
MO    5     MO 0.0        OCC NO =    2.0000000  ORB. ENERGY =    0.000000
  0.19728625D+00  0.36770914D+00  0.62350251D+00  0.94360475D+00  0.11770726D+01
  0.10101034D+01  0.38681593D+00 -0.12047539D-02 -0.12926218D-01 -0.47648475D-01
 -0.13932135D+00 -0.16788900D+00  0.20224009D+00  0.14780917D+00  0.88329863D-01
  0.89519507D-02  0.26445573D+00  0.25643310D+00  0.17298825D+00 -0.15876298D+00
 -0.15394669D+00 -0.10385153D+00  0.85385232D+00  0.82794953D+00  0.55852986D+00
  0.59198650D-01 -0.32724614D-01  0.18292617D+00  0.94487225D-02 -0.29675136D-02
  0.25211749D-01  0.28648969D-03 -0.23375948D-04  0.48020376D-03  0.66311165D-02
  0.15902690D-01 -0.22533807D-01  0.54239915D-04 -0.12141506D-01  0.15280470D-01
 -0.84534059D-03  0.68844230D-02 -0.60390824D-02 -0.41698253D-03 -0.28666603D-02
  0.19550987D-02 -0.42707072D-03  0.72691992D-03 -0.29984920D-03 -0.79765379D-04
 -0.14143245D-03 -0.11628839D-03 -0.16114985D-02 -0.69202553D-03  0.25630055D-02
  0.28659382D-02  0.13739214D-02 -0.51769374D-02  0.19685574D-02  0.70215515D-03
 -0.25120792D-02 -0.26302377D-03 -0.56583925D-04 -0.10360558D-04  0.76310006D-04
  0.73072028D-04  0.85674018D-04 -0.13997316D-03  0.96679747D-04 -0.54592343D-04
 -0.88956852D-04 -0.18872515D-04  0.21474764D-02  0.38730622D-02  0.57108279D-02
 -0.14852834D-01 -0.65818180D-02 -0.14379094D-03  0.36766808D-02  0.14433732D-02
  0.14772896D-01  0.20034959D-02 -0.57723662D-02  0.30635321D-02  0.29865345D-03
 -0.50692910D-03  0.52244237D-03  0.32707954D-03 -0.32684152D-02  0.29413357D-02
  0.18449408D-02  0.13089334D-02  0.16400151D-02  0.13799775D-03 -0.26402064D-03
  0.12602289D-03  0.19542178D-03  0.93375896D-04  0.17741076D-03 -0.64554551D-02
 -0.11642679D-01 -0.17167124D-01 -0.30680710D-01 -0.84923077D-02 -0.11693687D-03
  0.33262488D-02  0.35593752D-02  0.84144607D-02  0.14516444D-02  0.76223310D-02
  0.53191590D-03  0.26437681D-03  0.46359581D-03  0.47786067D-03  0.20439623D-02
 -0.41902000D-02  0.21462377D-02 -0.99105976D-03  0.10440832D-02  0.32637561D-02
  0.16324141D-03 -0.24187690D-03  0.78635489D-04 -0.13615406D-03  0.94327286D-04
 -0.34616390D-04
END DATA
 TOTAL ENERGY =    -76.466195734021 THE VIRIAL(-V/T)=   2.00599447
