 30
GAUSSIAN              5 MOL ORBITALS    126 PRIMITIVES        3 NUCLEI   B3LYP   B3LYP   B3LYP
  O    1    (CENTRE  1)  -0.09448631  0.00000000  0.00815606  CHARGE =  8.0
  H    2    (CENTRE  2)   0.09448631 -1.44255835 -1.09730160  CHARGE =  1.0
  H    3    (CENTRE  3)   0.00000000  1.44255835 -1.09730160  CHARGE =  1.0
CENTRE ASSIGNMENTS    1  1  1  1  1  1  1  1  1  1  1  1  1  1  1  1  1  1  1  1
CENTRE ASSIGNMENTS    1  1  1  1  1  1  1  1  1  1  1  1  1  1  1  1  1  1  1  1
CENTRE ASSIGNMENTS    1  1  1  1  1  1  1  1  1  1  1  1  1  1  1  1  1  1  1  1
CENTRE ASSIGNMENTS    1  1  1  1  1  1  1  1  1  1  1  1  2  2  2  2  2  2  2  2
CENTRE ASSIGNMENTS    2  2  2  2  2  2  2  2  2  2  2  2  2  2  2  2  2  2  2  3
CENTRE ASSIGNMENTS    3  3  3  3  3  3  3  3  3  3  3  3  3  3  3  3  3  3  3  3
CENTRE ASSIGNMENTS    3  3  3  3  3  3
TYPE ASSIGNMENTS      1  1  1  1  1  1  1  1  1  1  1  1  1  1  1  1  2  2  2  3
TYPE ASSIGNMENTS      3  3  4  4  4  2  3  4  2  3  4  2  3  4  5  6  7  8  9 10
TYPE ASSIGNMENTS      5  6  7  8  9 10  5  6  7  8  9 10 11 12 13 17 14 15 18 19
TYPE ASSIGNMENTS     16 20 11 12 13 17 14 15 18 19 16 20  1  1  1  1  1  1  2  3
TYPE ASSIGNMENTS      4  2  3  4  2  3  4  5  6  7  8  9 10  5  6  7  8  9 10  1
TYPE ASSIGNMENTS      1  1  1  1  1  2  3  4  2  3  4  2  3  4  5  6  7  8  9 10
TYPE ASSIGNMENTS      5  6  7  8  9 10
EXPONENTS  0.1533000D+05 0.2299000D+04 0.5224000D+03 0.1473000D+03 0.4755000D+02
EXPONENTS  0.1676000D+02 0.6207000D+01 0.5224000D+03 0.1473000D+03 0.4755000D+02
EXPONENTS  0.1676000D+02 0.6207000D+01 0.6882000D+00 0.1752000D+01 0.2384000D+00
EXPONENTS  0.7376000D-01 0.3446000D+02 0.7749000D+01 0.2280000D+01 0.3446000D+02
EXPONENTS  0.7749000D+01 0.2280000D+01 0.3446000D+02 0.7749000D+01 0.2280000D+01
EXPONENTS  0.7156000D+00 0.7156000D+00 0.7156000D+00 0.2140000D+00 0.2140000D+00
EXPONENTS  0.2140000D+00 0.5974000D-01 0.5974000D-01 0.5974000D-01 0.2314000D+01
EXPONENTS  0.2314000D+01 0.2314000D+01 0.2314000D+01 0.2314000D+01 0.2314000D+01
EXPONENTS  0.6450000D+00 0.6450000D+00 0.6450000D+00 0.6450000D+00 0.6450000D+00
EXPONENTS  0.6450000D+00 0.2140000D+00 0.2140000D+00 0.2140000D+00 0.2140000D+00
EXPONENTS  0.2140000D+00 0.2140000D+00 0.1428000D+01 0.1428000D+01 0.1428000D+01
EXPONENTS  0.1428000D+01 0.1428000D+01 0.1428000D+01 0.1428000D+01 0.1428000D+01
EXPONENTS  0.1428000D+01 0.1428000D+01 0.5000000D+00 0.5000000D+00 0.5000000D+00
EXPONENTS  0.5000000D+00 0.5000000D+00 0.5000000D+00 0.5000000D+00 0.5000000D+00
EXPONENTS  0.5000000D+00 0.5000000D+00 0.3387000D+02 0.5095000D+01 0.1159000D+01
EXPONENTS  0.3258000D+00 0.1027000D+00 0.2526000D-01 0.1407000D+01 0.1407000D+01
EXPONENTS  0.1407000D+01 0.3880000D+00 0.3880000D+00 0.3880000D+00 0.1020000D+00
EXPONENTS  0.1020000D+00 0.1020000D+00 0.1057000D+01 0.1057000D+01 0.1057000D+01
EXPONENTS  0.1057000D+01 0.1057000D+01 0.1057000D+01 0.2470000D+00 0.2470000D+00
EXPONENTS  0.2470000D+00 0.2470000D+00 0.2470000D+00 0.2470000D+00 0.3387000D+02
EXPONENTS  0.5095000D+01 0.1159000D+01 0.3258000D+00 0.1027000D+00 0.2526000D-01
EXPONENTS  0.1407000D+01 0.1407000D+01 0.1407000D+01 0.3880000D+00 0.3880000D+00
EXPONENTS  0.3880000D+00 0.1020000D+00 0.1020000D+00 0.1020000D+00 0.1057000D+01
EXPONENTS  0.1057000D+01 0.1057000D+01 0.1057000D+01 0.1057000D+01 0.1057000D+01
EXPONENTS  0.2470000D+00 0.2470000D+00 0.2470000D+00 0.2470000D+00 0.2470000D+00
EXPONENTS  0.2470000D+00
MO    1     MO 0.0        OCC NO =    2.0000000  ORB. ENERGY =    0.000000
 -0.42234483D-01 -0.78718131D-01 -0.13347765D+00 -0.20200424D+00 -0.25198436D+00
 -0.21624007D+00 -0.82808459D-01  0.18154680D-03  0.19478780D-02  0.71802450D-02
  0.20994615D-01  0.25299532D-01 -0.30475968D-01 -0.23644353D-01 -0.10076201D-02
  0.83175221D-03  0.16966573D+01  0.16451868D+01  0.11098333D+01  0.43555233D-01
  0.42233925D-01  0.28490756D-01  0.46495005D+00  0.45084515D+00  0.30413747D+00
  0.38341571D+00  0.10126116D-01  0.10320515D+00  0.63479694D-01  0.18761617D-02
  0.14186344D-01  0.20468741D-02  0.65245933D-04  0.38183790D-03  0.18124301D-01
 -0.27901224D-02 -0.15334179D-01  0.14270618D-02 -0.64872407D-01 -0.88929960D-03
  0.37967159D-02  0.49250562D-03 -0.42892215D-02  0.15217524D-03 -0.16965474D-01
 -0.45086263D-03  0.28047275D-04  0.22925202D-03 -0.25729929D-03 -0.25572743D-04
 -0.11989447D-02 -0.60022095D-04 -0.95257608D-02  0.64147060D-03  0.10836871D-02
  0.20971009D-01 -0.21954589D-02 -0.97531399D-02  0.76062732D-02  0.27104711D-03
  0.65020786D-02 -0.11299042D-02 -0.36181661D-03  0.16889295D-04  0.21778927D-03
  0.62140314D-03 -0.80831717D-04 -0.31107082D-03  0.46404670D-03  0.30163832D-04
 -0.34229700D-03  0.52441455D-04 -0.63492285D-02 -0.11451095D-01 -0.16884633D-01
 -0.98551029D-02 -0.10191462D-02 -0.91295837D-05  0.24137804D-01 -0.54630592D-02
  0.12424757D-02  0.12994463D-01 -0.16097235D-02  0.14782298D-02  0.19747064D-02
  0.69119344D-04  0.42738887D-03 -0.78378049D-03 -0.79327450D-03  0.15770550D-02
  0.12056840D-01  0.86262049D-02  0.11795173D-03 -0.12446249D-03  0.97620835D-05
  0.11470040D-03  0.12145892D-02  0.73551417D-03  0.26694996D-03 -0.70079822D-02
 -0.12639184D-01 -0.18636470D-01 -0.11077031D-01 -0.11444160D-02 -0.68565250D-05
  0.23997197D-01  0.74618610D-02  0.75865822D-03  0.12993707D-01  0.25965345D-02
  0.13073148D-02  0.19881238D-02  0.53017483D-04  0.42783819D-03  0.11872265D-03
 -0.16534980D-02  0.15347754D-02 -0.12054765D-01  0.87572799D-02  0.83754120D-03
 -0.47933074D-04 -0.66796328D-04  0.11472940D-03 -0.12335674D-02  0.76680185D-03
 -0.21589494D-03
MO    2     MO 0.0        OCC NO =    2.0000000  ORB. ENERGY =    0.000000
  0.17648104D-01  0.32893165D-01  0.55774983D-01  0.84409506D-01  0.10529421D+00
  0.90358093D-01  0.34602349D-01 -0.36493530D-03 -0.39155163D-02 -0.14433330D-01
 -0.42202211D-01 -0.50855717D-01  0.61261100D-01  0.39308226D-01 -0.29642897D-01
 -0.72254967D-02  0.54009139D+00  0.52370697D+00  0.35328963D+00  0.14709456D+00
  0.14263224D+00  0.96218870D-01 -0.13804882D+01 -0.13386092D+01 -0.90301786D+00
  0.12056151D+00  0.30476428D-01 -0.30001638D+00  0.18048180D-01  0.29825559D-02
 -0.34825327D-01  0.52227193D-03  0.40299885D-04 -0.65871837D-03 -0.41618282D-01
  0.62147843D-02  0.35403497D-01 -0.14983129D-02 -0.35047361D-01 -0.13559477D-01
 -0.58538755D-02 -0.48230881D-02  0.10676964D-01  0.10427054D-03 -0.82485015D-02
 -0.16927605D-02  0.76424183D-03 -0.13067613D-02  0.54251949D-03  0.11551744D-03
 -0.21276925D-03  0.12679191D-03 -0.43627778D-02  0.77487016D-03 -0.40761873D-03
  0.63241507D-02 -0.20897055D-02  0.16133551D-01  0.67641826D-02 -0.23490499D-03
 -0.14910694D-01  0.18126965D-02 -0.10429611D-03  0.19832790D-04 -0.65174115D-03
 -0.11723873D-03 -0.64854212D-04  0.14305599D-03  0.43012707D-03  0.53558426D-05
  0.18121674D-02 -0.11181048D-03  0.27597827D-01  0.49773817D-01  0.73391464D-01
  0.49824001D-01  0.71107658D-02  0.97664695D-04  0.37578140D-02  0.27792797D-01
  0.29661685D-02  0.23757727D-02  0.11559697D-01 -0.43186951D-04  0.53569823D-03
  0.20392978D-03 -0.91391128D-03 -0.38210138D-02  0.68093490D-02 -0.29883352D-02
  0.84055936D-03  0.14547399D-02  0.76973968D-02 -0.14135832D-03  0.25043630D-03
 -0.10907798D-03  0.28982663D-03  0.17415969D-03 -0.40747395D-03  0.34422679D-01
  0.62082719D-01  0.91540933D-01  0.62517907D-01  0.85572843D-02  0.75282771D-04
  0.50900715D-02 -0.31575608D-01  0.81002557D-02  0.29423262D-02 -0.12804418D-01
  0.19487280D-02  0.54568320D-03 -0.11198185D-03 -0.88911664D-03 -0.50320039D-02
  0.74110779D-02 -0.23790740D-02 -0.18552992D-02  0.16131761D-02 -0.11582918D-01
 -0.11963947D-03  0.19962911D-03 -0.79989638D-04 -0.32914584D-03  0.14582706D-03
  0.34131726D-03
MO    3     MO 0.0        OCC NO =    2.0000000  ORB. ENERGY =    0.000000
  0.48764932D-03  0.90889815D-03  0.15411645D-02  0.23323886D-02  0.29094710D-02
  0.24967590D-02  0.95612604D-03  0.19026924D-03  0.20414641D-02  0.75252211D-02
  0.22003305D-01  0.26515052D-01 -0.31940191D-01 -0.19473577D-01 -0.74053224D-02
 -0.23336659D-03 -0.86772505D-01 -0.84140141D-01 -0.56760442D-01  0.14561950D+01
  0.14120194D+01  0.95253992D+00  0.59835125D-01  0.58019944D-01  0.39139912D-01
 -0.18736593D-01  0.30199865D+00  0.13665267D-01 -0.22717458D-02  0.28793921D-01
  0.12548198D-02 -0.50013540D-04  0.28958433D-03  0.23789265D-04  0.34271463D-02
 -0.19772865D-02 -0.14498597D-02  0.17764271D-01  0.71730624D-02 -0.13544801D+00
  0.79427298D-03 -0.26084824D-03 -0.53342474D-03  0.23878807D-02  0.12972747D-02
 -0.18015682D-01 -0.15739650D-04  0.48837770D-04 -0.33098120D-04 -0.12166593D-03
 -0.38735291D-05  0.91746806D-03  0.85206138D-03  0.67396124D-02 -0.22363988D-03
 -0.22804006D-02 -0.14727548D-01 -0.12274212D-02 -0.27578350D-03 -0.54912888D-02
  0.18983408D-02 -0.26594739D-02  0.40451936D-04  0.11604377D-03  0.49827904D-04
 -0.63838290D-04 -0.86306576D-03 -0.23657567D-04 -0.57517519D-04  0.51493444D-03
 -0.12582614D-03 -0.35578270D-03 -0.40725795D-01 -0.73450648D-01 -0.10830294D+00
 -0.72696743D-01 -0.83855094D-02  0.12497529D-03  0.40773676D-02 -0.23690475D-01
 -0.29112097D-01  0.14746709D-02 -0.81161664D-02 -0.11260753D-01 -0.27752276D-04
  0.31107816D-03 -0.14644976D-03  0.71678097D-02 -0.38342959D-02 -0.33335137D-02
  0.33104637D-02  0.33113746D-02 -0.21739730D-01  0.65910061D-04  0.14208121D-03
 -0.20799127D-03  0.47621574D-04  0.76726706D-04 -0.58270959D-03  0.34005295D-01
  0.61329949D-01  0.90430975D-01  0.65136444D-01  0.82747304D-02 -0.11384611D-03
 -0.31389444D-02 -0.17268486D-01  0.25502717D-01 -0.13834756D-02 -0.68666207D-02
  0.10695852D-01 -0.74740404D-04  0.24897629D-03  0.23470209D-03 -0.65512177D-02
  0.30775116D-02  0.34737062D-02  0.21145768D-02 -0.21106502D-02 -0.19775968D-01
 -0.62938352D-04 -0.14650751D-03  0.20944586D-03  0.10641633D-03 -0.64599113D-04
 -0.61294434D-03
MO    4     MO 0.0        OCC NO =    2.0000000  ORB. ENERGY =    0.000000
 -0.11068219D+00 -0.20629341D+00 -0.34979946D+00 -0.52938429D+00 -0.66036517D+00
 -0.56669156D+00 -0.21701276D+00 -0.16832822D-02 -0.18060513D-01 -0.66574451D-01
 -0.19465979D+00 -0.23457451D+00  0.28256986D+00  0.16078873D+00  0.10253597D+00
  0.90428782D-02  0.24014775D-01  0.23286253D-01  0.15708769D-01  0.13757985D+00
  0.13340618D+00  0.89995020D-01  0.66370877D+00  0.64357425D+00  0.43415139D+00
  0.67382626D-02  0.28506862D-01  0.14030454D+00  0.13829219D-02  0.27370199D-02
  0.21465973D-01  0.81297799D-04  0.30170542D-04  0.41591536D-03 -0.27392207D-02
  0.20269928D-01 -0.17530708D-01  0.14558320D-03 -0.47822651D-03 -0.12799587D-01
 -0.29803333D-02  0.74029665D-02 -0.44226332D-02 -0.47560200D-03 -0.80483206D-03
 -0.16509226D-02 -0.31751234D-03  0.54478343D-03 -0.22727109D-03 -0.68514843D-04
 -0.10898650D-03  0.82559752D-04 -0.33549045D-03  0.68949037D-03  0.26891434D-02
  0.19930187D-02 -0.15326473D-02 -0.23133718D-02 -0.98654732D-03 -0.53582383D-03
 -0.57540583D-02 -0.44452934D-05 -0.32349999D-04  0.11227550D-04  0.98244863D-05
  0.43849621D-04 -0.75825584D-04  0.65473673D-04  0.53200375D-04  0.42142935D-04
 -0.94947132D-04 -0.14662348D-04  0.32533415D-02  0.58675354D-02  0.86516775D-02
 -0.17496714D-01 -0.77985698D-02 -0.12763532D-03 -0.43620047D-03  0.63291968D-02
  0.13945140D-01  0.77284829D-03 -0.49273695D-02  0.18516819D-02  0.10103621D-03
 -0.50817341D-03  0.36626241D-03  0.34785503D-04 -0.21390564D-02  0.21042709D-02
  0.66522410D-03 -0.86228184D-05  0.19892506D-02  0.14112628D-03 -0.22730668D-03
  0.86180399D-04  0.10651474D-03  0.66885327D-04 -0.76058641D-05  0.10327677D-01
  0.18626391D-01  0.27464603D-01 -0.46243173D-02 -0.62285591D-02 -0.14934654D-03
 -0.55589583D-03 -0.10250296D-01  0.19225038D-01  0.23856202D-03  0.35503883D-02
  0.39105356D-02  0.62040142D-04  0.56085320D-03  0.40384313D-03 -0.12600629D-02
 -0.14982402D-02  0.27583031D-02 -0.23362368D-05 -0.25408596D-03 -0.59620055D-02
  0.13208262D-03 -0.25584346D-03  0.12376084D-03 -0.43254022D-04  0.57522577D-04
 -0.10070970D-03
MO    5     MO 0.0        OCC NO =    2.0000000  ORB. ENERGY =    0.000000
  0.49489236D+00  0.92239798D+00  0.15640554D+01  0.23670315D+01  0.29526852D+01
  0.25338432D+01  0.97032735D+00  0.76279444D-04  0.81842837D-03  0.30168811D-02
  0.88211833D-02  0.10629955D-01 -0.12804907D-01  0.50631125D-01  0.48845259D-02
  0.99009760D-03  0.13886736D+00  0.13465463D+00  0.90837218D-01  0.27852492D-01
  0.27007548D-01  0.18219132D-01  0.17583569D+00  0.17050147D+00  0.11501928D+00
  0.31421661D-01  0.59880877D-02  0.39336870D-01  0.53976315D-02  0.68931605D-03
  0.48031425D-02  0.18068692D-03  0.11959807D-04  0.98819986D-04  0.31944113D-02
  0.17479744D-02 -0.49423857D-02  0.40183831D-03 -0.45971143D-02 -0.23889659D-02
  0.10294502D-02  0.37291789D-03 -0.14023680D-02  0.84086625D-04 -0.11154659D-02
 -0.39287353D-03 -0.32053098D-04  0.10454245D-03 -0.72489353D-04 -0.10665827D-04
 -0.10724776D-03 -0.10264548D-05 -0.81103867D-03  0.17693832D-03  0.69112557D-03
  0.20785626D-02 -0.50645528D-03 -0.13229682D-02  0.35455338D-03 -0.24359690D-04
 -0.75040850D-03 -0.11178123D-03  0.56476717D-05  0.12695049D-05 -0.57682671D-04
 -0.11072227D-04 -0.14581914D-04 -0.32214807D-03 -0.58707884D-05  0.10773400D-04
  0.49519608D-03 -0.55461282D-04 -0.39593688D-02 -0.71408846D-02 -0.10529230D-01
 -0.79617478D-02 -0.12572756D-02 -0.90760072D-05  0.24575260D-02 -0.39567970D-02
 -0.78476812D-03  0.13362055D-02 -0.20395311D-02 -0.44268552D-03  0.17828826D-03
 -0.56556143D-04  0.87392659D-04  0.13387914D-02 -0.16715253D-02  0.33273391D-03
  0.18007127D-02  0.12453043D-02 -0.37918084D-02  0.13272899D-04 -0.30579447D-04
  0.17306548D-04  0.11824342D-03  0.73271871D-04  0.62939025D-05 -0.27847327D-02
 -0.50223801D-02 -0.74054965D-02 -0.59321004D-02 -0.10279119D-02 -0.14150172D-04
  0.21303030D-02  0.35720291D-02  0.32621450D-05  0.11782166D-02  0.19606235D-02
 -0.14933335D-03  0.17453767D-03  0.83570136D-04  0.90115356D-04  0.12748655D-02
 -0.17055481D-02  0.43068264D-03 -0.13499785D-02  0.95239877D-03  0.33655190D-02
  0.18998406D-04 -0.44327044D-04  0.25328638D-04 -0.11004816D-03  0.73053522D-04
 -0.18528662D-04
END DATA
 TOTAL ENERGY =    -76.466170759233 THE VIRIAL(-V/T)=   2.00611198
