 30
GAUSSIAN              5 MOL ORBITALS    126 PRIMITIVES        3 NUCLEI   B3LYP   B3LYP   B3LYP
  O    1    (CENTRE  1)   0.09448631  0.00000000  0.00815606  CHARGE =  8.0
  H    2    (CENTRE  2)  -0.09448631 -1.44255835 -1.09730160  CHARGE =  1.0
  H    3    (CENTRE  3)   0.00000000  1.44255835 -1.09730160  CHARGE =  1.0
CENTRE ASSIGNMENTS    1  1  1  1  1  1  1  1  1  1  1  1  1  1  1  1  1  1  1  1
CENTRE ASSIGNMENTS    1  1  1  1  1  1  1  1  1  1  1  1  1  1  1  1  1  1  1  1
CENTRE ASSIGNMENTS    1  1  1  1  1  1  1  1  1  1  1  1  1  1  1  1  1  1  1  1
CENTRE ASSIGNMENTS    1  1  1  1  1  1  1  1  1  1  1  1  2  2  2  2  2  2  2  2
CENTRE ASSIGNMENTS    2  2  2  2  2  2  2  2  2  2  2  2  2  2  2  2  2  2  2  3
CENTRE ASSIGNMENTS    3  3  3  3  3  3  3  3  3  3  3  3  3  3  3  3  3  3  3  3
CENTRE ASSIGNMENTS    3  3  3  3  3  3
TYPE ASSIGNMENTS      1  1  1  1  1  1  1  1  1  1  1  1  1  1  1  1  2  2  2  3
TYPE ASSIGNMENTS      3  3  4  4  4  2  3  4  2  3  4  2  3  4  5  6  7  8  9 10
TYPE ASSIGNMENTS      5  6  7  8  9 10  5  6  7  8  9 10 11 12 13 17 14 15 18 19
TYPE ASSIGNMENTS     16 20 11 12 13 17 14 15 18 19 16 20  1  1  1  1  1  1  2  3
TYPE ASSIGNMENTS      4  2  3  4  2  3  4  5  6  7  8  9 10  5  6  7  8  9 10  1
TYPE ASSIGNMENTS      1  1  1  1  1  2  3  4  2  3  4  2  3  4  5  6  7  8  9 10
TYPE ASSIGNMENTS      5  6  7  8  9 10
EXPONENTS  0.1533000D+05 0.2299000D+04 0.5224000D+03 0.1473000D+03 0.4755000D+02
EXPONENTS  0.1676000D+02 0.6207000D+01 0.5224000D+03 0.1473000D+03 0.4755000D+02
EXPONENTS  0.1676000D+02 0.6207000D+01 0.6882000D+00 0.1752000D+01 0.2384000D+00
EXPONENTS  0.7376000D-01 0.3446000D+02 0.7749000D+01 0.2280000D+01 0.3446000D+02
EXPONENTS  0.7749000D+01 0.2280000D+01 0.3446000D+02 0.7749000D+01 0.2280000D+01
EXPONENTS  0.7156000D+00 0.7156000D+00 0.7156000D+00 0.2140000D+00 0.2140000D+00
EXPONENTS  0.2140000D+00 0.5974000D-01 0.5974000D-01 0.5974000D-01 0.2314000D+01
EXPONENTS  0.2314000D+01 0.2314000D+01 0.2314000D+01 0.2314000D+01 0.2314000D+01
EXPONENTS  0.6450000D+00 0.6450000D+00 0.6450000D+00 0.6450000D+00 0.6450000D+00
EXPONENTS  0.6450000D+00 0.2140000D+00 0.2140000D+00 0.2140000D+00 0.2140000D+00
EXPONENTS  0.2140000D+00 0.2140000D+00 0.1428000D+01 0.1428000D+01 0.1428000D+01
EXPONENTS  0.1428000D+01 0.1428000D+01 0.1428000D+01 0.1428000D+01 0.1428000D+01
EXPONENTS  0.1428000D+01 0.1428000D+01 0.5000000D+00 0.5000000D+00 0.5000000D+00
EXPONENTS  0.5000000D+00 0.5000000D+00 0.5000000D+00 0.5000000D+00 0.5000000D+00
EXPONENTS  0.5000000D+00 0.5000000D+00 0.3387000D+02 0.5095000D+01 0.1159000D+01
EXPONENTS  0.3258000D+00 0.1027000D+00 0.2526000D-01 0.1407000D+01 0.1407000D+01
EXPONENTS  0.1407000D+01 0.3880000D+00 0.3880000D+00 0.3880000D+00 0.1020000D+00
EXPONENTS  0.1020000D+00 0.1020000D+00 0.1057000D+01 0.1057000D+01 0.1057000D+01
EXPONENTS  0.1057000D+01 0.1057000D+01 0.1057000D+01 0.2470000D+00 0.2470000D+00
EXPONENTS  0.2470000D+00 0.2470000D+00 0.2470000D+00 0.2470000D+00 0.3387000D+02
EXPONENTS  0.5095000D+01 0.1159000D+01 0.3258000D+00 0.1027000D+00 0.2526000D-01
EXPONENTS  0.1407000D+01 0.1407000D+01 0.1407000D+01 0.3880000D+00 0.3880000D+00
EXPONENTS  0.3880000D+00 0.1020000D+00 0.1020000D+00 0.1020000D+00 0.1057000D+01
EXPONENTS  0.1057000D+01 0.1057000D+01 0.1057000D+01 0.1057000D+01 0.1057000D+01
EXPONENTS  0.2470000D+00 0.2470000D+00 0.2470000D+00 0.2470000D+00 0.2470000D+00
EXPONENTS  0.2470000D+00
MO    1     MO 0.0        OCC NO =    2.0000000  ORB. ENERGY =    0.000000
  0.87525652D-01  0.16313342D+00  0.27661564D+00  0.41862836D+00  0.52220588D+00
  0.44813034D+00  0.17161011D+00 -0.22296277D-03 -0.23922443D-02 -0.88182628D-02
 -0.25784083D-01 -0.31071074D-01  0.37428401D-01  0.33021347D-01 -0.22962452D-01
 -0.53209622D-02  0.10797755D+01  0.10470190D+01  0.70631283D+00 -0.12664346D+00
 -0.12280156D+00 -0.82841205D-01 -0.11904510D+01 -0.11543370D+01 -0.77870894D+00
  0.24503405D+00 -0.27161726D-01 -0.26015328D+00  0.41720138D-01 -0.32889841D-02
 -0.32395315D-01  0.13832455D-02 -0.65388308D-04 -0.70626768D-03 -0.37662206D-01
  0.43275997D-02  0.33334607D-01  0.39542206D-02 -0.32965318D-01  0.92642426D-02
 -0.60973678D-02 -0.36239421D-02  0.97213099D-02  0.28721374D-03 -0.92523376D-02
  0.15566554D-02  0.42292477D-03 -0.95000303D-03  0.52707826D-03 -0.10300900D-03
 -0.87014547D-03  0.98451562D-05 -0.53062085D-02 -0.89692146D-03 -0.12691167D-02
  0.13523632D-01  0.23881712D-02  0.17108141D-01  0.23949937D-02  0.30259318D-03
 -0.13300791D-01 -0.22114243D-02 -0.23851247D-03 -0.16746746D-04 -0.54695515D-03
  0.57205542D-03  0.13214707D-03  0.30905956D-03  0.14348200D-03 -0.81906830D-04
  0.13318059D-02  0.67446192D-04  0.24346032D-01  0.43909072D-01  0.64743901D-01
  0.44462560D-01  0.62465190D-02  0.57395183D-04  0.18008560D-01  0.21571403D-01
  0.26109817D-02  0.95054175D-02  0.88474835D-02 -0.17274004D-03  0.13209160D-02
  0.59725579D-04 -0.86142244D-03 -0.21621640D-02  0.48824693D-02 -0.27203053D-02
  0.97413894D-02  0.65679014D-02  0.61179744D-02  0.62554260D-05  0.13080607D-03
 -0.13706150D-03  0.84459450D-03  0.51761022D-03 -0.37706464D-03  0.19807428D-01
  0.35723512D-01  0.52674298D-01  0.36161096D-01  0.51741851D-02  0.71281713D-04
  0.16371725D-01 -0.20430620D-01 -0.63771020D-03  0.88416379D-02 -0.85644371D-02
 -0.15339755D-02  0.13181874D-02 -0.17442621D-03 -0.89354679D-03 -0.19377819D-02
  0.50943112D-02 -0.31565293D-02 -0.85542607D-02  0.59850561D-02 -0.41133354D-02
 -0.29190386D-04  0.19934547D-03 -0.17015508D-03 -0.81667942D-03  0.54237001D-03
  0.44006871D-03
MO    2     MO 0.0        OCC NO =    2.0000000  ORB. ENERGY =    0.000000
  0.12031154D-01  0.22424092D-01  0.38023199D-01  0.57544069D-01  0.71781690D-01
  0.61599370D-01  0.23589286D-01 -0.80531103D-05 -0.86404589D-04 -0.31850358D-03
 -0.93128579D-03 -0.11222447D-02  0.13518626D-02  0.25884355D-02  0.37694494D-01
  0.66080963D-02  0.13872422D+01  0.13451583D+01  0.90743582D+00 -0.82370829D-01
 -0.79871996D-01 -0.53881177D-01  0.95915674D+00  0.93005940D+00  0.62741258D+00
  0.31208214D+00 -0.17667675D-01  0.20679987D+00  0.50041223D-01 -0.22513185D-02
  0.23421074D-01  0.15592184D-02 -0.56552843D-04  0.38090766D-03  0.23715394D-01
 -0.95220527D-03 -0.22763188D-01 -0.99211137D-03 -0.65002414D-01  0.57957310D-02
  0.23374664D-02  0.46059975D-02 -0.69434639D-02  0.15579243D-03 -0.16149584D-01
  0.87075835D-03 -0.68194363D-03  0.10132413D-02 -0.33129763D-03  0.92755878D-04
 -0.82837790D-03 -0.31900341D-04 -0.88603670D-02 -0.69638527D-03  0.82327035D-04
  0.16669055D-01  0.22832687D-02 -0.80913319D-02  0.99120463D-02 -0.19411289D-03
  0.78443508D-02  0.93248228D-03 -0.28535550D-03 -0.20712226D-04  0.41130023D-03
  0.24926256D-03  0.62201655D-04  0.54117006D-04  0.60680394D-03 -0.64977973D-07
 -0.12880177D-02 -0.47514473D-04 -0.19943978D-01 -0.35969786D-01 -0.53037428D-01
 -0.39864528D-01 -0.65208966D-02 -0.87368395D-04  0.16449589D-01 -0.19697397D-01
 -0.22614924D-02  0.90376946D-02 -0.94807558D-02 -0.91369195D-03  0.15266526D-02
 -0.26217587D-03  0.55211411D-03  0.38276099D-02 -0.55624312D-02  0.17348213D-02
  0.72001263D-02  0.58830440D-02 -0.68885931D-02  0.20555850D-03 -0.23561284D-03
  0.30054343D-04  0.89873732D-03  0.54134039D-03  0.16502673D-03 -0.21964338D-01
 -0.39613588D-01 -0.58410212D-01 -0.43700590D-01 -0.69241326D-02 -0.80470314D-04
  0.17703257D-01  0.19924463D-01 -0.38447685D-02  0.96593232D-02  0.93162524D-02
 -0.15133586D-02  0.15488071D-02  0.14303979D-03  0.54793678D-03  0.37317951D-02
 -0.52837010D-02  0.15519059D-02 -0.82908296D-02  0.62904206D-02  0.77596666D-02
  0.14007937D-03 -0.16395676D-03  0.23877389D-04 -0.95442602D-03  0.54117759D-03
 -0.18974281D-03
MO    3     MO 0.0        OCC NO =    2.0000000  ORB. ENERGY =    0.000000
 -0.67125787D-01 -0.12511143D+00 -0.21214401D+00 -0.32105740D+00 -0.40049380D+00
 -0.34368326D+00 -0.13161243D+00  0.91646340D-04  0.98330508D-03  0.36246477D-02
  0.10598257D-01  0.12771415D-01 -0.15384523D-01 -0.17334788D-01 -0.84673556D-02
 -0.91764142D-03  0.19952400D+00  0.19347116D+00  0.13051450D+00  0.14381005D+01
  0.13944737D+01  0.94070375D+00 -0.11926144D+00 -0.11564348D+00 -0.78012410D-01
  0.44348103D-01  0.29811933D+00 -0.25695848D-01  0.67257309D-02  0.28336928D-01
 -0.34219515D-02  0.19973422D-03  0.28131803D-03 -0.75288226D-04 -0.25274322D-02
 -0.95628827D-03  0.34837205D-02 -0.17123039D-01 -0.99951161D-02 -0.13405232D+00
 -0.29234457D-03 -0.64074341D-03  0.93308798D-03 -0.23185915D-02 -0.21038480D-02
 -0.17779681D-01  0.50466631D-04 -0.95476549D-04  0.45009918D-04  0.10651598D-03
 -0.91932464D-04  0.91923428D-03 -0.13561436D-02  0.66212462D-02 -0.39186861D-03
  0.37003287D-02 -0.14421131D-01  0.12533584D-02  0.36810202D-03 -0.54426078D-02
 -0.77752583D-04  0.23313009D-02 -0.59500610D-04  0.11434443D-03 -0.21264921D-04
  0.12399580D-03 -0.84574535D-03  0.63771954D-04  0.54506026D-04  0.50271204D-03
  0.22808082D-07  0.35640247D-03 -0.36260284D-01 -0.65396916D-01 -0.96427714D-01
 -0.65159405D-01 -0.74729722D-02  0.13107329D-03 -0.19290146D-02 -0.19532600D-01
 -0.28005663D-01 -0.38303068D-03 -0.65770964D-02 -0.11081688D-01  0.16973384D-03
  0.31567445D-03 -0.26918553D-03  0.65607549D-02 -0.28754190D-02 -0.36853359D-02
 -0.20552174D-02 -0.24705167D-02 -0.20058641D-01  0.63356787D-04  0.16130220D-03
 -0.22465899D-03  0.44848412D-04 -0.19535666D-04 -0.63333338D-03  0.37759107D-01
  0.68100105D-01  0.10041356D+00  0.71387343D-01  0.90243406D-02 -0.10533378D-03
  0.49755518D-02 -0.21217771D-01  0.26115039D-01  0.23588726D-02 -0.83460186D-02
  0.10669627D-01  0.21636185D-03  0.22935656D-03  0.10758628D-03 -0.71120003D-02
  0.40561095D-02  0.30558908D-02 -0.31258791D-02  0.28116067D-02 -0.21153794D-01
 -0.68653941D-04 -0.11875177D-03  0.18740571D-03 -0.19420085D-03  0.12463009D-03
 -0.55126145D-03
MO    4     MO 0.0        OCC NO =    2.0000000  ORB. ENERGY =    0.000000
  0.17624510D-01  0.32849188D-01  0.55700415D-01  0.84296655D-01  0.10515343D+00
  0.90237290D-01  0.34556088D-01 -0.16429254D-02 -0.17627512D-01 -0.64978328D-01
 -0.18999282D+00 -0.22895059D+00  0.27579524D+00  0.17172283D+00  0.95070068D-01
  0.78690493D-02 -0.16742117D+00 -0.16234222D+00 -0.10951510D+00  0.16576453D+00
  0.16073583D+00  0.10843144D+00  0.48693339D+00  0.47216159D+00  0.31851742D+00
 -0.38886283D-01  0.34421514D-01  0.10237125D+00 -0.64664968D-02  0.33575721D-02
  0.16943841D-01 -0.23669189D-03  0.39909491D-04  0.33405568D-03 -0.75494605D-02
  0.20695555D-01 -0.13146095D-01 -0.10615645D-03  0.78890201D-02 -0.15294242D-01
 -0.33806240D-02  0.64895720D-02 -0.31089480D-02  0.40890883D-03  0.25613046D-02
 -0.19934972D-02 -0.20025525D-03  0.36172966D-03 -0.16147441D-03  0.52319650D-04
  0.18431776D-03  0.99245993D-04  0.13325531D-02  0.85150571D-03  0.27065941D-02
 -0.37282555D-02 -0.19877440D-02 -0.37854735D-03 -0.26940391D-03 -0.56677315D-03
 -0.77412349D-02 -0.20224153D-03  0.51446032D-04  0.14661847D-04 -0.95494398D-04
 -0.33642030D-04 -0.90075116D-04 -0.16830323D-05 -0.12069607D-03  0.46089574D-04
  0.28816623D-03  0.44197688D-04  0.59074085D-02  0.10654255D-01  0.15709692D-01
 -0.11891078D-01 -0.67917773D-02 -0.11003543D-03 -0.12011033D-02  0.89565533D-02
  0.13524511D-01 -0.16642048D-02 -0.35958332D-02  0.16487627D-02 -0.25568738D-03
 -0.46871372D-03  0.24678167D-03 -0.18444248D-03 -0.14964815D-02  0.16809239D-02
 -0.14403700D-02 -0.68318644D-03  0.20230183D-02  0.11575885D-03 -0.18814769D-03
  0.72388839D-04 -0.19632345D-03 -0.12154415D-03 -0.62037864D-04  0.14205103D-01
  0.25619488D-01  0.37775920D-01  0.32266827D-02 -0.49672621D-02 -0.13609911D-03
 -0.11732389D-02 -0.13457961D-01  0.19697784D-01 -0.11864443D-02  0.20444454D-02
  0.40536153D-02 -0.21895513D-03  0.54338810D-03  0.28834652D-03 -0.16459094D-02
 -0.79637317D-03  0.24422825D-02  0.82402423D-03 -0.38335512D-03 -0.66205255D-02
  0.11267477D-03 -0.22867196D-03  0.11599719D-03  0.13927200D-03 -0.10850853D-03
 -0.57410170D-04
MO    5     MO 0.0        OCC NO =    2.0000000  ORB. ENERGY =    0.000000
  0.49663110D+00  0.92563872D+00  0.15695505D+01  0.23753478D+01  0.29630592D+01
  0.25427456D+01  0.97373648D+00  0.53311954D-03  0.57200228D-02  0.21085081D-01
  0.61651540D-01  0.74293103D-01 -0.89493916D-01  0.36885224D-02 -0.20343939D-01
 -0.98205785D-03 -0.19884473D+00 -0.19281250D+00 -0.13007017D+00  0.21285526D+00
  0.20639800D+00  0.13923487D+00  0.91931427D-01  0.89142560D-01  0.60135045D-01
 -0.44839993D-01  0.44420191D-01  0.22238594D-01 -0.77376448D-02  0.43967371D-02
  0.16376459D-02 -0.25253385D-03  0.50862980D-04  0.43136661D-04  0.67661387D-02
 -0.39227650D-02 -0.28433737D-02 -0.31942993D-02  0.59495054D-02 -0.19416399D-01
  0.22583637D-02 -0.12815994D-02 -0.97676433D-03 -0.56518633D-03  0.14278516D-02
 -0.26908986D-02  0.19491582D-04  0.34017154D-04 -0.53508736D-04  0.17645913D-04
  0.14264134D-03  0.11084972D-03  0.99675529D-03  0.10419231D-02  0.55179087D-04
 -0.22209384D-02 -0.24199744D-02 -0.20374875D-02 -0.76932750D-03 -0.70579500D-03
  0.18719502D-02  0.64193585D-03 -0.86062734D-06  0.16533160D-04 -0.14357167D-04
 -0.11023182D-04 -0.12982249D-03 -0.35119762D-03  0.13605064D-04  0.80223007D-04
  0.39426913D-03  0.96649801D-04 -0.12108124D-01 -0.21837501D-01 -0.32199382D-01
 -0.16752595D-01 -0.89565867D-03  0.37393438D-04 -0.44213615D-02 -0.10207004D-01
 -0.85894007D-02 -0.20269615D-02 -0.24855005D-02 -0.24958754D-02 -0.24398785D-03
  0.11369706D-03  0.29792256D-04  0.24459052D-02 -0.19445473D-02 -0.50135790D-03
 -0.27718447D-02 -0.21739377D-02 -0.76740238D-02 -0.14226659D-04  0.39529015D-04
 -0.25302356D-04 -0.15873953D-03 -0.10448788D-03 -0.50732636D-04 -0.15833213D-02
 -0.28555851D-02 -0.42105586D-02  0.25669058D-02  0.14252361D-02  0.23097495D-05
 -0.29838234D-02  0.47981210D-02 -0.99672401D-03 -0.15504192D-02  0.56300256D-03
  0.55352271D-03 -0.24316595D-03 -0.10969180D-04  0.80560124D-04  0.70412634D-03
 -0.11519939D-02  0.44786759D-03  0.16401217D-02 -0.11297680D-02  0.20929159D-02
 -0.22268836D-04 -0.13618536D-04  0.35887372D-04  0.14257087D-03 -0.87887109D-04
 -0.11156474D-03
END DATA
 TOTAL ENERGY =    -76.466170759233 THE VIRIAL(-V/T)=   2.00611198
