 30
GAUSSIAN              5 MOL ORBITALS    126 PRIMITIVES        3 NUCLEI   B3LYP   B3LYP   B3LYP
  O    1    (CENTRE  1)  -0.09448631  0.00000000  0.00815606  CHARGE =  8.0
  H    2    (CENTRE  2)  -0.09448631 -1.44255835 -1.09730160  CHARGE =  1.0
  H    3    (CENTRE  3)   0.00000000  1.44255835 -1.09730160  CHARGE =  1.0
CENTRE ASSIGNMENTS    1  1  1  1  1  1  1  1  1  1  1  1  1  1  1  1  1  1  1  1
CENTRE ASSIGNMENTS    1  1  1  1  1  1  1  1  1  1  1  1  1  1  1  1  1  1  1  1
CENTRE ASSIGNMENTS    1  1  1  1  1  1  1  1  1  1  1  1  1  1  1  1  1  1  1  1
CENTRE ASSIGNMENTS    1  1  1  1  1  1  1  1  1  1  1  1  2  2  2  2  2  2  2  2
CENTRE ASSIGNMENTS    2  2  2  2  2  2  2  2  2  2  2  2  2  2  2  2  2  2  2  3
CENTRE ASSIGNMENTS    3  3  3  3  3  3  3  3  3  3  3  3  3  3  3  3  3  3  3  3
CENTRE ASSIGNMENTS    3  3  3  3  3  3
TYPE ASSIGNMENTS      1  1  1  1  1  1  1  1  1  1  1  1  1  1  1  1  2  2  2  3
TYPE ASSIGNMENTS      3  3  4  4  4  2  3  4  2  3  4  2  3  4  5  6  7  8  9 10
TYPE ASSIGNMENTS      5  6  7  8  9 10  5  6  7  8  9 10 11 12 13 17 14 15 18 19
TYPE ASSIGNMENTS     16 20 11 12 13 17 14 15 18 19 16 20  1  1  1  1  1  1  2  3
TYPE ASSIGNMENTS      4  2  3  4  2  3  4  5  6  7  8  9 10  5  6  7  8  9 10  1
TYPE ASSIGNMENTS      1  1  1  1  1  2  3  4  2  3  4  2  3  4  5  6  7  8  9 10
TYPE ASSIGNMENTS      5  6  7  8  9 10
EXPONENTS  0.1533000D+05 0.2299000D+04 0.5224000D+03 0.1473000D+03 0.4755000D+02
EXPONENTS  0.1676000D+02 0.6207000D+01 0.5224000D+03 0.1473000D+03 0.4755000D+02
EXPONENTS  0.1676000D+02 0.6207000D+01 0.6882000D+00 0.1752000D+01 0.2384000D+00
EXPONENTS  0.7376000D-01 0.3446000D+02 0.7749000D+01 0.2280000D+01 0.3446000D+02
EXPONENTS  0.7749000D+01 0.2280000D+01 0.3446000D+02 0.7749000D+01 0.2280000D+01
EXPONENTS  0.7156000D+00 0.7156000D+00 0.7156000D+00 0.2140000D+00 0.2140000D+00
EXPONENTS  0.2140000D+00 0.5974000D-01 0.5974000D-01 0.5974000D-01 0.2314000D+01
EXPONENTS  0.2314000D+01 0.2314000D+01 0.2314000D+01 0.2314000D+01 0.2314000D+01
EXPONENTS  0.6450000D+00 0.6450000D+00 0.6450000D+00 0.6450000D+00 0.6450000D+00
EXPONENTS  0.6450000D+00 0.2140000D+00 0.2140000D+00 0.2140000D+00 0.2140000D+00
EXPONENTS  0.2140000D+00 0.2140000D+00 0.1428000D+01 0.1428000D+01 0.1428000D+01
EXPONENTS  0.1428000D+01 0.1428000D+01 0.1428000D+01 0.1428000D+01 0.1428000D+01
EXPONENTS  0.1428000D+01 0.1428000D+01 0.5000000D+00 0.5000000D+00 0.5000000D+00
EXPONENTS  0.5000000D+00 0.5000000D+00 0.5000000D+00 0.5000000D+00 0.5000000D+00
EXPONENTS  0.5000000D+00 0.5000000D+00 0.3387000D+02 0.5095000D+01 0.1159000D+01
EXPONENTS  0.3258000D+00 0.1027000D+00 0.2526000D-01 0.1407000D+01 0.1407000D+01
EXPONENTS  0.1407000D+01 0.3880000D+00 0.3880000D+00 0.3880000D+00 0.1020000D+00
EXPONENTS  0.1020000D+00 0.1020000D+00 0.1057000D+01 0.1057000D+01 0.1057000D+01
EXPONENTS  0.1057000D+01 0.1057000D+01 0.1057000D+01 0.2470000D+00 0.2470000D+00
EXPONENTS  0.2470000D+00 0.2470000D+00 0.2470000D+00 0.2470000D+00 0.3387000D+02
EXPONENTS  0.5095000D+01 0.1159000D+01 0.3258000D+00 0.1027000D+00 0.2526000D-01
EXPONENTS  0.1407000D+01 0.1407000D+01 0.1407000D+01 0.3880000D+00 0.3880000D+00
EXPONENTS  0.3880000D+00 0.1020000D+00 0.1020000D+00 0.1020000D+00 0.1057000D+01
EXPONENTS  0.1057000D+01 0.1057000D+01 0.1057000D+01 0.1057000D+01 0.1057000D+01
EXPONENTS  0.2470000D+00 0.2470000D+00 0.2470000D+00 0.2470000D+00 0.2470000D+00
EXPONENTS  0.2470000D+00
MO    1     MO 0.0        OCC NO =    2.0000000  ORB. ENERGY =    0.000000
  0.46154765D-01  0.86024893D-01  0.14586729D+00  0.22075464D+00  0.27537401D+00
  0.23631187D+00  0.90494892D-01  0.29865295D-04  0.32043501D-03  0.11811838D-02
  0.34537121D-02  0.41618910D-02 -0.50134388D-02  0.23810442D-02  0.40299755D-02
  0.82894291D-03  0.11326468D+00  0.10982864D+00  0.74089752D-01  0.14537119D+01
  0.14096116D+01  0.95091563D+00  0.15572457D+00  0.15100045D+00  0.10186401D+00
  0.24732930D-01  0.30073857D+00  0.33858938D-01  0.34406593D-02  0.28266179D-01
  0.39960234D-02  0.91791832D-04  0.27806123D-03  0.79368772D-04  0.46603227D-02
 -0.44718915D-03 -0.42131336D-02  0.54978097D-02 -0.66850143D-02 -0.13619928D+00
  0.70048999D-03  0.53095593D-03 -0.12314459D-02  0.75023130D-03 -0.11831057D-02
 -0.17739147D-01 -0.81393059D-04  0.14163231D-03 -0.60239255D-04 -0.28818470D-04
 -0.18873438D-04  0.10215326D-02 -0.83817373D-03  0.67742688D-02  0.17689066D-03
  0.24872466D-02 -0.14672186D-01 -0.18827810D-02  0.27274576D-04 -0.56506206D-02
  0.13521090D-02 -0.57562772D-03 -0.41175412D-04  0.11926664D-03  0.60660536D-04
  0.95735478D-04 -0.84404681D-03 -0.49840801D-04  0.27790758D-04  0.48624691D-03
 -0.13214081D-03 -0.12089172D-03 -0.40586896D-01 -0.73200139D-01 -0.10793356D+00
 -0.75202912D-01 -0.91964743D-02  0.10693529D-03  0.14148522D-02 -0.24096034D-01
 -0.28083258D-01  0.72779966D-03 -0.90198625D-02 -0.11148454D-01  0.96129052D-04
  0.24563250D-03 -0.88983694D-04  0.76514471D-02 -0.45115449D-02 -0.31399021D-02
  0.66026323D-03  0.55901115D-03 -0.22395044D-01  0.69076363D-04  0.12179465D-03
 -0.19087102D-03  0.78931091D-04  0.37054887D-04 -0.54011623D-03  0.34293420D-01
  0.61849595D-01  0.91197192D-01  0.63244453D-01  0.74630799D-02 -0.12697315D-03
 -0.74650338D-03 -0.17831074D-01  0.27220845D-01 -0.13156250D-03 -0.62917388D-02
  0.11011890D-01  0.81011422D-04  0.28976802D-03  0.29532131D-03 -0.65527735D-02
  0.27829737D-02  0.37697998D-02  0.96591481D-03 -0.11678015D-02 -0.19902631D-01
 -0.48600411D-04 -0.16947622D-03  0.21807663D-03 -0.33010403D-04 -0.11150459D-04
 -0.63668842D-03
MO    2     MO 0.0        OCC NO =    2.0000000  ORB. ENERGY =    0.000000
  0.25890590D+00  0.48255803D+00  0.81824494D+00  0.12383267D+01  0.15447150D+01
  0.13255953D+01  0.50763256D+00 -0.23852886D-03 -0.25592581D-02 -0.94339074D-02
 -0.27584192D-01 -0.33240292D-01  0.40041455D-01  0.54882256D-01 -0.23541463D-01
 -0.55731566D-02  0.70206104D+00  0.68076305D+00  0.45923873D+00 -0.74364593D-02
 -0.72108640D-02 -0.48644063D-02 -0.10876631D+01 -0.10546673D+01 -0.71147235D+00
  0.15813088D+00 -0.18959977D-02 -0.23591427D+00  0.25520396D-01 -0.49608612D-03
 -0.27558571D-01  0.80268739D-03 -0.22850743D-04 -0.53060032D-03 -0.34357256D-01
  0.58102001D-02  0.28547056D-01  0.26643561D-02 -0.32318049D-01 -0.28173444D-03
 -0.46361920D-02 -0.38985084D-02  0.85347004D-02  0.64640677D-04 -0.80696137D-02
  0.36726609D-04  0.61627070D-03 -0.10437856D-02  0.42751492D-03 -0.10692839D-03
 -0.44329442D-03  0.13293126D-04 -0.45281940D-02 -0.20473495D-03 -0.29886698D-03
  0.87713672D-02  0.84935956D-03  0.13947710D-01  0.48132149D-02 -0.23515471D-03
 -0.13051109D-01 -0.17675309D-02 -0.13964260D-03 -0.66239435D-05 -0.58358985D-03
  0.12979725D-03  0.92115486D-05 -0.12097974D-04  0.28913054D-03  0.10660282D-04
  0.17628675D-02  0.10676586D-03  0.23358250D-01  0.42127566D-01  0.62117071D-01
  0.42228206D-01  0.58400594D-02  0.67696855D-04  0.96790650D-02  0.22084778D-01
  0.34845960D-02  0.52355480D-02  0.88437806D-02  0.23908101D-03  0.79890921D-03
  0.70493090D-04 -0.74794148D-03 -0.26640080D-02  0.49059234D-02 -0.22419154D-02
  0.47868632D-02  0.35022008D-02  0.56267616D-02 -0.68129294D-04  0.15188356D-03
 -0.83754265D-04  0.50539088D-03  0.28454521D-03 -0.36340065D-03  0.24107353D-01
  0.43478604D-01  0.64109175D-01  0.43608305D-01  0.60317571D-02  0.65742067D-04
  0.81518094D-02 -0.23016154D-01  0.40116227D-02  0.46162618D-02 -0.93181306D-02
  0.47450613D-03  0.79067961D-03 -0.11923881D-03 -0.74062940D-03 -0.30822078D-02
  0.52492699D-02 -0.21670620D-02 -0.37190358D-02  0.30812101D-02 -0.62401582D-02
 -0.10498303D-03  0.18215870D-03 -0.77175662D-04 -0.46969484D-03  0.30405975D-03
  0.32306719D-03
MO    3     MO 0.0        OCC NO =    2.0000000  ORB. ENERGY =    0.000000
 -0.96590253D-01 -0.18002835D+00 -0.30526337D+00 -0.46198364D+00 -0.57628818D+00
 -0.49454100D+00 -0.18938293D+00 -0.59179451D-04 -0.63495667D-03 -0.23405699D-02
 -0.68436890D-02 -0.82469780D-02  0.99343589D-02 -0.51598052D-02  0.19467714D-01
  0.31631433D-02  0.16294532D+01  0.15800215D+01  0.10658731D+01 -0.13089050D+00
 -0.12691975D+00 -0.85619316D-01  0.59299107D+00  0.57500187D+00  0.38789287D+00
  0.36825155D+00 -0.28127651D-01  0.12904291D+00  0.60805097D-01 -0.35203810D-02
  0.16432984D-01  0.19573715D-02 -0.79491394D-04  0.35515375D-03  0.17124728D-01
 -0.34326219D-03 -0.16781465D-01 -0.15221140D-02 -0.64886279D-01  0.93320791D-02
  0.24936406D-02  0.23030122D-02 -0.47966528D-02 -0.37220849D-04 -0.16890088D-01
  0.15158817D-02 -0.22596719D-03  0.48027695D-03 -0.25430976D-03  0.53098569D-04
 -0.11618420D-02 -0.92189035D-05 -0.95489360D-02 -0.10385643D-02  0.84113504D-03
  0.20405427D-01  0.30777454D-02 -0.82625580D-02  0.82413809D-02  0.37947520D-04
  0.57391529D-02  0.98685205D-03 -0.34715049D-03 -0.22901982D-04  0.26071852D-03
  0.54202451D-03  0.11823775D-03 -0.10549906D-03  0.49942696D-03 -0.49531808D-04
 -0.67665649D-03 -0.47657600D-04 -0.71557056D-02 -0.12905610D-01 -0.19029314D-01
 -0.15121749D-01 -0.26761706D-02 -0.46824564D-04  0.22652614D-01 -0.81926939D-02
  0.26227514D-02  0.12344570D-01 -0.41825240D-02  0.13154839D-02  0.19096318D-02
 -0.16784652D-03  0.44779814D-03  0.75161712D-03 -0.24938435D-02  0.17422264D-02
  0.11284257D-01  0.83749028D-02 -0.77794284D-03  0.48217813D-04 -0.13906964D-03
  0.90851830D-04  0.11811404D-02  0.75008399D-03  0.21162009D-03 -0.11120122D-01
 -0.20055599D-01 -0.29571969D-01 -0.22431619D-01 -0.35702942D-02 -0.34588528D-04
  0.23266281D-01  0.88743896D-02 -0.29958703D-03  0.12631923D-01  0.41715789D-02
  0.13802222D-03  0.19125306D-02  0.16500663D-04  0.42607596D-03  0.74875234D-03
 -0.21207218D-02  0.13719694D-02 -0.11759446D-01  0.85412684D-02  0.24524116D-02
 -0.21666393D-04 -0.46640262D-04  0.68306655D-04 -0.11944048D-02  0.73436164D-03
 -0.19381711D-03
MO    4     MO 0.0        OCC NO =    2.0000000  ORB. ENERGY =    0.000000
  0.42046341D+00  0.78367465D+00  0.13288305D+01  0.20110437D+01  0.25086185D+01
  0.21527679D+01  0.82439572D+00  0.37611903D-03  0.40355103D-02  0.14875651D-01
  0.43495531D-01  0.52414230D-01 -0.63138494D-01  0.11046959D-01  0.11590007D-01
  0.38209166D-02 -0.95661924D-01 -0.92759887D-01 -0.62575272D-01 -0.18656385D+00
 -0.18090418D+00 -0.12203689D+00  0.80898243D+00  0.78444083D+00  0.52917915D+00
 -0.21246480D-01 -0.38646345D-01  0.17700205D+00 -0.30322827D-02 -0.36390907D-02
  0.20382915D-01 -0.83517271D-04 -0.34706108D-04  0.39615467D-03  0.24773617D-01
 -0.32216972D-02 -0.21551920D-01 -0.25912801D-02  0.68011786D-02  0.17487768D-01
  0.42149707D-02  0.22180704D-02 -0.64330411D-02 -0.23273914D-03  0.15700754D-02
  0.23153940D-02 -0.39836920D-03  0.71980899D-03 -0.32143980D-03  0.78316855D-04
  0.27863405D-04 -0.12106529D-03  0.80959159D-03 -0.85913397D-03  0.75286193D-03
 -0.12200568D-02  0.18121307D-02 -0.97124771D-02 -0.12087180D-02  0.76527120D-03
  0.74538913D-02  0.12308299D-02  0.31285283D-04 -0.13429542D-04  0.28961223D-03
 -0.45644970D-05  0.11149144D-03 -0.36847596D-03 -0.89291353D-04 -0.71202818D-04
 -0.50036071D-03  0.80509940D-05 -0.14206284D-01 -0.25621619D-01 -0.37779062D-01
 -0.24601611D-01 -0.33048070D-02 -0.58304526D-04 -0.12655940D-02 -0.16295970D-01
 -0.73293900D-03 -0.65464786D-03 -0.65875274D-02  0.54683398D-03 -0.91560269D-04
 -0.12789270D-03  0.54406060D-03  0.25080604D-02 -0.45015131D-02  0.19934526D-02
 -0.60155823D-03 -0.41915911D-03 -0.55570119D-02  0.53541348D-04 -0.14238395D-03
  0.88842600D-04 -0.65425561D-04 -0.18000212D-04  0.29624506D-03 -0.23911617D-01
 -0.43125586D-01 -0.63588652D-01 -0.42491822D-01 -0.54675225D-02 -0.27678203D-04
  0.28435501D-03  0.21670200D-01 -0.78528496D-02 -0.35082324D-04  0.85621019D-02
 -0.23136601D-02 -0.82975753D-04  0.62254481D-04  0.49346345D-03  0.43241895D-02
 -0.54226108D-02  0.10984213D-02 -0.72901977D-03  0.35538034D-03  0.10965461D-01
  0.73787991D-04 -0.10749462D-03  0.33706629D-04  0.33731125D-04 -0.25862676D-04
 -0.13720046D-03
MO    5     MO 0.0        OCC NO =    2.0000000  ORB. ENERGY =    0.000000
 -0.63088426D-01 -0.11758645D+00 -0.19938435D+00 -0.30174702D+00 -0.37640562D+00
 -0.32301202D+00 -0.12369644D+00 -0.16837376D-02 -0.18065399D-01 -0.66592463D-01
 -0.19471245D+00 -0.23463798D+00  0.28264631D+00  0.16642270D+00  0.10180477D+00
  0.88961058D-02 -0.18894021D+00 -0.18320844D+00 -0.12359133D+00 -0.98700008D-02
 -0.95705807D-02 -0.64562572D-02  0.61768637D+00  0.59894800D+00  0.40404678D+00
 -0.42264882D-01 -0.19103240D-02  0.13025919D+00 -0.68881618D-02 -0.81866524D-04
  0.20128648D-01 -0.20930814D-03  0.36978995D-05  0.38157031D-03 -0.45685468D-02
  0.20806670D-01 -0.16238123D-01  0.16044368D-02  0.76960872D-02  0.12777126D-02
 -0.32704610D-02  0.72760459D-02 -0.40055850D-02  0.68254334D-03  0.17831576D-02
  0.11448981D-03 -0.31356552D-03  0.51243025D-03 -0.19886473D-03  0.54134266D-04
  0.10341296D-03 -0.14937337D-04  0.10384774D-02 -0.12300025D-04  0.26731762D-02
 -0.17648505D-02 -0.64047246D-04 -0.14515896D-02 -0.13505818D-02  0.10094732D-03
 -0.65679391D-02 -0.33020315D-03  0.31861974D-04  0.75739173D-06 -0.37569473D-04
 -0.52919481D-04 -0.16681199D-05  0.66321765D-04 -0.42666441D-04 -0.60405529D-06
  0.46386653D-04  0.10679286D-05  0.79710857D-02  0.14376181D-01  0.21197671D-01
 -0.90783608D-02 -0.67526839D-02 -0.13761619D-03 -0.26709178D-02  0.92760763D-02
  0.16909254D-01 -0.14777210D-02 -0.39181858D-02  0.28888440D-02 -0.22141051D-03
 -0.53070015D-03  0.34874566D-03 -0.67361560D-03 -0.16832046D-02  0.23568202D-02
 -0.13653040D-02 -0.95199749D-03  0.41693845D-02  0.14194696D-03 -0.23831769D-03
  0.96370731D-04 -0.14392241D-03 -0.67991666D-04  0.33340673D-04  0.71226875D-02
  0.12846060D-01  0.18941508D-01 -0.10586900D-01 -0.69375325D-02 -0.13523093D-03
 -0.32214224D-02 -0.86060785D-02  0.16247588D-01 -0.11986216D-02  0.41745015D-02
  0.26460410D-02 -0.18574543D-03  0.53950642D-03  0.34405527D-03 -0.42570621D-03
 -0.18502577D-02  0.22759639D-02  0.11827361D-02 -0.11824287D-02 -0.36130819D-02
  0.15144724D-03 -0.24386934D-03  0.92422097D-04  0.92201501D-04 -0.68595590D-04
 -0.16174151D-04
END DATA
 TOTAL ENERGY =    -76.466195734021 THE VIRIAL(-V/T)=   2.00599447
