 31
GAUSSIAN              5 MOL ORBITALS    126 PRIMITIVES        3 NUCLEI   B3LYP   B3LYP   B3LYP
  O    1    (CENTRE  1)   0.00000000  0.09448631  0.00815606  CHARGE =  8.0
  H    2    (CENTRE  2)   0.09448631 -1.44255835 -1.09730160  CHARGE =  1.0
  H    3    (CENTRE  3)   0.00000000  1.44255835 -1.09730160  CHARGE =  1.0
CENTRE ASSIGNMENTS    1  1  1  1  1  1  1  1  1  1  1  1  1  1  1  1  1  1  1  1
CENTRE ASSIGNMENTS    1  1  1  1  1  1  1  1  1  1  1  1  1  1  1  1  1  1  1  1
CENTRE ASSIGNMENTS    1  1  1  1  1  1  1  1  1  1  1  1  1  1  1  1  1  1  1  1
CENTRE ASSIGNMENTS    1  1  1  1  1  1  1  1  1  1  1  1  2  2  2  2  2  2  2  2
CENTRE ASSIGNMENTS    2  2  2  2  2  2  2  2  2  2  2  2  2  2  2  2  2  2  2  3
CENTRE ASSIGNMENTS    3  3  3  3  3  3  3  3  3  3  3  3  3  3  3  3  3  3  3  3
CENTRE ASSIGNMENTS    3  3  3  3  3  3
TYPE ASSIGNMENTS      1  1  1  1  1  1  1  1  1  1  1  1  1  1  1  1  2  2  2  3
TYPE ASSIGNMENTS      3  3  4  4  4  2  3  4  2  3  4  2  3  4  5  6  7  8  9 10
TYPE ASSIGNMENTS      5  6  7  8  9 10  5  6  7  8  9 10 11 12 13 17 14 15 18 19
TYPE ASSIGNMENTS     16 20 11 12 13 17 14 15 18 19 16 20  1  1  1  1  1  1  2  3
TYPE ASSIGNMENTS      4  2  3  4  2  3  4  5  6  7  8  9 10  5  6  7  8  9 10  1
TYPE ASSIGNMENTS      1  1  1  1  1  2  3  4  2  3  4  2  3  4  5  6  7  8  9 10
TYPE ASSIGNMENTS      5  6  7  8  9 10
EXPONENTS  0.1533000D+05 0.2299000D+04 0.5224000D+03 0.1473000D+03 0.4755000D+02
EXPONENTS  0.1676000D+02 0.6207000D+01 0.5224000D+03 0.1473000D+03 0.4755000D+02
EXPONENTS  0.1676000D+02 0.6207000D+01 0.6882000D+00 0.1752000D+01 0.2384000D+00
EXPONENTS  0.7376000D-01 0.3446000D+02 0.7749000D+01 0.2280000D+01 0.3446000D+02
EXPONENTS  0.7749000D+01 0.2280000D+01 0.3446000D+02 0.7749000D+01 0.2280000D+01
EXPONENTS  0.7156000D+00 0.7156000D+00 0.7156000D+00 0.2140000D+00 0.2140000D+00
EXPONENTS  0.2140000D+00 0.5974000D-01 0.5974000D-01 0.5974000D-01 0.2314000D+01
EXPONENTS  0.2314000D+01 0.2314000D+01 0.2314000D+01 0.2314000D+01 0.2314000D+01
EXPONENTS  0.6450000D+00 0.6450000D+00 0.6450000D+00 0.6450000D+00 0.6450000D+00
EXPONENTS  0.6450000D+00 0.2140000D+00 0.2140000D+00 0.2140000D+00 0.2140000D+00
EXPONENTS  0.2140000D+00 0.2140000D+00 0.1428000D+01 0.1428000D+01 0.1428000D+01
EXPONENTS  0.1428000D+01 0.1428000D+01 0.1428000D+01 0.1428000D+01 0.1428000D+01
EXPONENTS  0.1428000D+01 0.1428000D+01 0.5000000D+00 0.5000000D+00 0.5000000D+00
EXPONENTS  0.5000000D+00 0.5000000D+00 0.5000000D+00 0.5000000D+00 0.5000000D+00
EXPONENTS  0.5000000D+00 0.5000000D+00 0.3387000D+02 0.5095000D+01 0.1159000D+01
EXPONENTS  0.3258000D+00 0.1027000D+00 0.2526000D-01 0.1407000D+01 0.1407000D+01
EXPONENTS  0.1407000D+01 0.3880000D+00 0.3880000D+00 0.3880000D+00 0.1020000D+00
EXPONENTS  0.1020000D+00 0.1020000D+00 0.1057000D+01 0.1057000D+01 0.1057000D+01
EXPONENTS  0.1057000D+01 0.1057000D+01 0.1057000D+01 0.2470000D+00 0.2470000D+00
EXPONENTS  0.2470000D+00 0.2470000D+00 0.2470000D+00 0.2470000D+00 0.3387000D+02
EXPONENTS  0.5095000D+01 0.1159000D+01 0.3258000D+00 0.1027000D+00 0.2526000D-01
EXPONENTS  0.1407000D+01 0.1407000D+01 0.1407000D+01 0.3880000D+00 0.3880000D+00
EXPONENTS  0.3880000D+00 0.1020000D+00 0.1020000D+00 0.1020000D+00 0.1057000D+01
EXPONENTS  0.1057000D+01 0.1057000D+01 0.1057000D+01 0.1057000D+01 0.1057000D+01
EXPONENTS  0.2470000D+00 0.2470000D+00 0.2470000D+00 0.2470000D+00 0.2470000D+00
EXPONENTS  0.2470000D+00
MO    1     MO 0.0        OCC NO =    2.0000000  ORB. ENERGY =    0.000000
 -0.12108618D+00 -0.22568473D+00 -0.38268017D+00 -0.57914575D+00 -0.72243867D+00
 -0.61995986D+00 -0.23741169D+00 -0.69303380D-04 -0.74357978D-03 -0.27409751D-02
 -0.80144504D-02 -0.96578024D-02  0.11633846D-01 -0.69204704D-02  0.53029683D-01
  0.89204288D-02 -0.47105359D+00 -0.45676353D+00 -0.30812998D+00 -0.14434557D+00
 -0.13996665D+00 -0.94420673D-01  0.14819301D+01  0.14369737D+01  0.96937398D+00
 -0.10598819D+00 -0.24978763D-01  0.31995235D+00 -0.16972739D-01 -0.30683839D-04
  0.38089921D-01 -0.52460340D-03  0.55861912D-05  0.73369671D-03  0.40671768D-01
 -0.95564078D-03 -0.39716127D-01  0.89052362D-03  0.22947065D-01  0.20264961D-01
  0.49835423D-02  0.63338286D-02 -0.11317371D-01  0.22553320D-03  0.57123796D-02
 -0.11867882D-02 -0.84501687D-03  0.13707840D-02 -0.52576717D-03 -0.26903507D-04
  0.29868841D-03 -0.10781855D-02  0.31657197D-02 -0.13923467D-03  0.12926142D-02
 -0.56827761D-02  0.84943591D-03 -0.17282949D-01 -0.38143831D-02 -0.43173190D-03
  0.13405106D-01 -0.15505089D-02  0.94784689D-04 -0.27994327D-03  0.64802820D-03
 -0.43574659D-04 -0.18248956D-03 -0.28619721D-04 -0.24077941D-03  0.10223194D-02
 -0.19154649D-02 -0.24309655D-03 -0.22300637D-01 -0.40220116D-01 -0.59304538D-01
 -0.44717835D-01 -0.85213413D-02 -0.13986322D-03 -0.47172842D-02 -0.20374472D-01
  0.32900394D-02 -0.25678788D-02 -0.10899549D-01  0.13375327D-02 -0.47873080D-03
 -0.37907996D-03  0.91078833D-03  0.26100325D-02 -0.60044446D-02  0.33944120D-02
 -0.20219172D-02 -0.18358815D-02 -0.33991808D-02  0.25335034D-03 -0.33317195D-03
  0.79821608D-04 -0.24432579D-03 -0.14297425D-03  0.21506529D-03 -0.32392719D-01
 -0.58421603D-01 -0.86142619D-01 -0.65764277D-01 -0.91653926D-02 -0.86170670D-04
 -0.71376222D-02  0.31598174D-01 -0.61568358D-02 -0.38366592D-02  0.13377916D-01
 -0.11341711D-02 -0.56408281D-03  0.99384558D-04  0.10909465D-02  0.48368181D-02
 -0.76630212D-02  0.28262031D-02  0.33968623D-02 -0.26505661D-02  0.11772100D-01
 -0.32730353D-04 -0.16749069D-03  0.20022105D-03  0.36448694D-03 -0.22260766D-03
 -0.73642349D-03
MO    2     MO 0.0        OCC NO =    2.0000000  ORB. ENERGY =    0.000000
  0.63564955D-01  0.11847462D+00  0.20089037D+00  0.30402622D+00  0.37924875D+00
  0.32545185D+00  0.12463077D+00 -0.91424572D-04 -0.98092566D-03 -0.36158767D-02
 -0.10572611D-01 -0.12740511D-01  0.15347295D-01  0.17747189D-01  0.17246359D-01
  0.28825874D-02  0.14622736D+01  0.14179135D+01  0.95651605D+00  0.69473096D+00
  0.67365534D+00  0.45444391D+00  0.51023026D+00  0.49475172D+00  0.33375659D+00
  0.33043995D+00  0.14663133D+00  0.11358222D+00  0.54704487D-01  0.15470201D-01
  0.15725556D-01  0.17691378D-02  0.20396961D-03  0.33408291D-03  0.13097786D-01
  0.93782296D-03 -0.14035609D-01  0.69704792D-02 -0.57910342D-01 -0.60616233D-01
  0.25875594D-02  0.14338600D-02 -0.40214193D-02 -0.50038707D-03 -0.14948789D-01
 -0.94920176D-02 -0.26707313D-04  0.28409166D-03 -0.25738435D-03 -0.29590216D-03
 -0.10290265D-02  0.89781272D-04 -0.84448909D-02  0.37890212D-02  0.90873973D-03
  0.17681670D-01 -0.92306927D-02 -0.69521608D-02  0.76530024D-02 -0.21363709D-02
  0.42259416D-02 -0.26506101D-02 -0.28420840D-03  0.79979148D-06  0.81491135D-04
  0.45072593D-03 -0.53274795D-03 -0.37112099D-03  0.40189928D-03  0.53034858D-03
  0.12664759D-03  0.85889021D-03 -0.23502559D-01 -0.42387833D-01 -0.62500834D-01
 -0.44466687D-01 -0.68980494D-02  0.13348251D-04  0.19770398D-01 -0.13842387D-01
 -0.83719292D-02  0.10730498D-01 -0.64343072D-02 -0.36084027D-02  0.16333759D-02
  0.18326254D-05  0.25331339D-03  0.31800737D-02 -0.34017894D-02  0.22171568D-03
  0.10638405D-01  0.73531341D-02 -0.92039012D-02  0.10198925D-03 -0.70719477D-04
 -0.31269768D-04  0.10141000D-02  0.56178581D-03 -0.29119787D-03  0.88578670D-02
  0.15975528D-01  0.23555907D-01  0.13726585D-01  0.47582911D-03 -0.90512031D-04
  0.22357686D-01 -0.61870639D-03  0.15128543D-01  0.12166001D-01  0.14570667D-02
  0.57637886D-02  0.18391396D-02  0.35822519D-03  0.45520068D-03 -0.18710219D-02
 -0.15979775D-02  0.34689995D-02 -0.10762511D-01  0.85599921D-02 -0.67584990D-02
  0.50410162D-04 -0.25764345D-03  0.20723329D-03 -0.11469832D-02  0.82140498D-03
 -0.28445996D-03
MO    3     MO 0.0        OCC NO =    2.0000000  ORB. ENERGY =    0.000000
 -0.83233059D-01 -0.15513274D+00 -0.26304936D+00 -0.39809723D+00 -0.49659491D+00
 -0.42615232D+00 -0.16319370D+00 -0.35004120D-04 -0.37557123D-03 -0.13844263D-02
 -0.40479812D-02 -0.48780142D-02  0.58760851D-02 -0.48075513D-02 -0.83192085D-02
 -0.82111954D-03 -0.78894041D+00 -0.76500681D+00 -0.51606908D+00  0.12850571D+01
  0.12460732D+01  0.84059359D+00 -0.14972530D+00 -0.14518318D+00 -0.97939712D-01
 -0.17749819D+00  0.26499132D+00 -0.27525225D-01 -0.28685538D-01  0.24383224D-01
 -0.93722472D-03 -0.90079202D-03  0.22069051D-03 -0.29128868D-04 -0.46578827D-02
 -0.82858342D-03  0.54864662D-02  0.27436958D-02  0.34226312D-01 -0.12162807D+00
  0.26941128D-03 -0.15243307D-02  0.12549195D-02  0.12138831D-02  0.83247797D-02
 -0.15442040D-01  0.34892300D-03 -0.30118743D-03 -0.47735569D-04  0.13741615D-03
  0.52011313D-03  0.10321685D-02  0.48728855D-02  0.57910681D-02 -0.37957312D-03
 -0.10797656D-01 -0.12358087D-01  0.12199371D-02 -0.38210010D-02 -0.50151174D-02
 -0.81217757D-04  0.16260149D-03  0.19055709D-03  0.12276291D-03 -0.21079795D-03
 -0.33705953D-03 -0.66661575D-03 -0.25368739D-03 -0.23461174D-03  0.29832702D-03
  0.88608125D-03 -0.64124572D-03 -0.31280072D-01 -0.56414897D-01 -0.83183733D-01
 -0.56262999D-01 -0.73929390D-02  0.11581561D-03 -0.81278155D-02 -0.15885694D-01
 -0.21156674D-01 -0.46309810D-02 -0.60331349D-02 -0.90244022D-02 -0.81511264D-03
  0.13162867D-03 -0.27910029D-03  0.56676892D-02 -0.31031683D-02 -0.25645208D-02
 -0.36884396D-02 -0.22099098D-02 -0.16381492D-01  0.16592749D-03  0.39785984D-05
 -0.16990608D-03 -0.45144179D-03 -0.21631181D-03 -0.83988140D-03  0.36452751D-01
  0.65744038D-01  0.96939545D-01  0.69086154D-01  0.75037223D-02 -0.99661777D-04
 -0.11899001D-01 -0.22949583D-01  0.29492524D-01 -0.64016704D-02 -0.77084224D-02
  0.10786711D-01 -0.94712643D-03  0.35514418D-03  0.21386213D-04 -0.73907247D-02
  0.35001778D-02  0.38905469D-02  0.56694448D-02 -0.45676957D-02 -0.21891867D-01
  0.73613309D-04 -0.25244412D-03  0.17883081D-03  0.61427892D-03 -0.41777728D-03
 -0.90498497D-04
MO    4     MO 0.0        OCC NO =    2.0000000  ORB. ENERGY =    0.000000
  0.47733790D+00  0.88967936D+00  0.15085764D+01  0.22830699D+01  0.28479498D+01
  0.24439646D+01  0.93590862D+00  0.15019158D-03  0.16114571D-02  0.59401342D-02
  0.17368604D-01  0.20930012D-01 -0.25212418D-01  0.40995127D-01  0.49613542D-02
  0.14592305D-02 -0.46418344D+00 -0.45010180D+00 -0.30363601D+00  0.83073529D-01
  0.80553379D-01  0.54340833D-01  0.25521019D+00  0.24746804D+00  0.16694048D+00
 -0.10476277D+00  0.20080407D-01  0.56358603D-01 -0.17081715D-01  0.27283202D-02
  0.63513104D-02 -0.54188423D-03  0.33927444D-04  0.11129215D-03  0.58478470D-02
  0.65536946D-03 -0.65032165D-02 -0.40839900D-03  0.19901552D-01 -0.92937693D-02
  0.13881757D-02  0.49567991D-03 -0.18838556D-02  0.45590010D-03  0.50855293D-02
 -0.27553987D-02 -0.10883435D-03  0.19442676D-03 -0.85592405D-04  0.72155745D-04
  0.31981712D-03 -0.26265635D-03  0.28393468D-02  0.35320546D-03  0.48154746D-03
 -0.58084614D-02 -0.16157215D-02 -0.19798151D-02 -0.27095792D-02  0.55610514D-03
  0.53517269D-03  0.61003385D-04  0.11048951D-03 -0.27714771D-04 -0.23522706D-04
 -0.16582332D-03 -0.90291727D-04 -0.31238568D-03 -0.16564522D-03  0.17343604D-03
  0.38295379D-03 -0.35990689D-03 -0.85679263D-02 -0.15452608D-01 -0.22784861D-01
 -0.14453111D-01 -0.19850974D-02  0.27097251D-05 -0.53760206D-02 -0.67690944D-02
 -0.23205746D-02 -0.29878106D-02 -0.28020788D-02 -0.77082820D-03 -0.49771358D-03
 -0.16438433D-04  0.13967899D-03  0.18097146D-02 -0.21360952D-02  0.32638064D-03
 -0.25224137D-02 -0.17856321D-02 -0.41958816D-02  0.65056341D-04 -0.48790632D-04
 -0.16265710D-04 -0.28798239D-03 -0.15446815D-03 -0.40894031D-04 -0.43396519D-02
 -0.78267410D-02 -0.11540525D-01 -0.94830952D-02 -0.15443388D-02 -0.36224235D-04
 -0.70611916D-02  0.68830535D-02 -0.10348320D-02 -0.38168097D-02  0.33256680D-02
 -0.56244591D-03 -0.56928298D-03  0.14066660D-03  0.11009402D-03  0.19483658D-02
 -0.24651960D-02  0.51683019D-03  0.33828962D-02 -0.26837950D-02  0.52095895D-02
  0.23009756D-04 -0.73963766D-04  0.50954010D-04  0.36202591D-03 -0.24744907D-03
 -0.59479233D-04
MO    5     MO 0.0        OCC NO =    2.0000000  ORB. ENERGY =    0.000000
 -0.76231687D-01 -0.14208333D+00 -0.24092225D+00 -0.36461021D+00 -0.45482250D+00
 -0.39030537D+00 -0.14946622D+00 -0.17313095D-02 -0.18575815D-01 -0.68473951D-01
 -0.20021382D+00 -0.24126738D+00  0.29063213D+00  0.16967484D+00  0.91012468D-01
  0.67313056D-02 -0.94484925D-01 -0.91618595D-01 -0.61805363D-01 -0.46529244D-01
 -0.45117716D-01 -0.30436144D-01  0.23197794D+00  0.22494056D+00  0.15174358D+00
 -0.21018691D-01 -0.13067405D-01  0.46773665D-01 -0.35551681D-02 -0.21834117D-02
  0.10241927D-01 -0.10990747D-03 -0.22161234D-04  0.18862835D-03 -0.15614108D-01
  0.21505578D-01 -0.58914708D-02 -0.26754455D-02  0.27750534D-02  0.61265598D-03
 -0.47785826D-02  0.58553290D-02 -0.10767464D-02 -0.75889131D-03  0.51724143D-03
  0.29080996D-02 -0.10603603D-03  0.16472683D-03 -0.58690800D-04 -0.12867290D-04
  0.47529260D-04  0.27049719D-03  0.34047632D-03 -0.72919467D-03  0.23531119D-02
 -0.49922887D-03  0.15671618D-02  0.31780703D-02 -0.52220010D-03  0.62042221D-03
 -0.10237406D-01  0.10366033D-02  0.14285681D-05  0.44250035D-04 -0.18912698D-03
 -0.26024097D-04  0.38117010D-03  0.10587960D-03  0.21738393D-04 -0.51392021D-03
  0.46150134D-03 -0.78321588D-05  0.15272944D-01  0.27545383D-01  0.40615651D-01
  0.64410169D-02 -0.42812429D-02 -0.11559916D-03 -0.22356674D-02  0.15411589D-01
  0.15952581D-01 -0.69652178D-03 -0.75457683D-03  0.30925551D-02 -0.82241647D-04
 -0.51087714D-03  0.10700174D-03 -0.14141331D-02 -0.54368596D-04  0.14685017D-02
 -0.87707034D-03 -0.80460905D-03  0.55181817D-02  0.92426988D-04 -0.19617289D-03
  0.10374591D-03 -0.38994780D-04 -0.32715923D-04  0.19944264D-04  0.15503137D-01
  0.27960546D-01  0.41227809D-01  0.38499413D-02 -0.48385283D-02 -0.10309230D-03
 -0.15052865D-02 -0.17597031D-01  0.19019946D-01 -0.84128610D-03  0.63656802D-03
  0.25898271D-02 -0.12467484D-03  0.42862742D-03  0.73908599D-04 -0.19492704D-02
  0.37403990D-03  0.15752305D-02  0.76937806D-03 -0.55131472D-03 -0.71807929D-02
  0.13233143D-03 -0.14330037D-03  0.10968941D-04  0.78597940D-04 -0.43835800D-04
  0.18402329D-03
END DATA
 TOTAL ENERGY =    -76.463084508206 THE VIRIAL(-V/T)=   2.00581126
