 31
GAUSSIAN              5 MOL ORBITALS    126 PRIMITIVES        3 NUCLEI   B3LYP   B3LYP   B3LYP
  O    1    (CENTRE  1)   0.00000000 -0.09448631  0.00815606  CHARGE =  8.0
  H    2    (CENTRE  2)   0.09448631 -1.44255835 -1.09730160  CHARGE =  1.0
  H    3    (CENTRE  3)   0.00000000  1.44255835 -1.09730160  CHARGE =  1.0
CENTRE ASSIGNMENTS    1  1  1  1  1  1  1  1  1  1  1  1  1  1  1  1  1  1  1  1
CENTRE ASSIGNMENTS    1  1  1  1  1  1  1  1  1  1  1  1  1  1  1  1  1  1  1  1
CENTRE ASSIGNMENTS    1  1  1  1  1  1  1  1  1  1  1  1  1  1  1  1  1  1  1  1
CENTRE ASSIGNMENTS    1  1  1  1  1  1  1  1  1  1  1  1  2  2  2  2  2  2  2  2
CENTRE ASSIGNMENTS    2  2  2  2  2  2  2  2  2  2  2  2  2  2  2  2  2  2  2  3
CENTRE ASSIGNMENTS    3  3  3  3  3  3  3  3  3  3  3  3  3  3  3  3  3  3  3  3
CENTRE ASSIGNMENTS    3  3  3  3  3  3
TYPE ASSIGNMENTS      1  1  1  1  1  1  1  1  1  1  1  1  1  1  1  1  2  2  2  3
TYPE ASSIGNMENTS      3  3  4  4  4  2  3  4  2  3  4  2  3  4  5  6  7  8  9 10
TYPE ASSIGNMENTS      5  6  7  8  9 10  5  6  7  8  9 10 11 12 13 17 14 15 18 19
TYPE ASSIGNMENTS     16 20 11 12 13 17 14 15 18 19 16 20  1  1  1  1  1  1  2  3
TYPE ASSIGNMENTS      4  2  3  4  2  3  4  5  6  7  8  9 10  5  6  7  8  9 10  1
TYPE ASSIGNMENTS      1  1  1  1  1  2  3  4  2  3  4  2  3  4  5  6  7  8  9 10
TYPE ASSIGNMENTS      5  6  7  8  9 10
EXPONENTS  0.1533000D+05 0.2299000D+04 0.5224000D+03 0.1473000D+03 0.4755000D+02
EXPONENTS  0.1676000D+02 0.6207000D+01 0.5224000D+03 0.1473000D+03 0.4755000D+02
EXPONENTS  0.1676000D+02 0.6207000D+01 0.6882000D+00 0.1752000D+01 0.2384000D+00
EXPONENTS  0.7376000D-01 0.3446000D+02 0.7749000D+01 0.2280000D+01 0.3446000D+02
EXPONENTS  0.7749000D+01 0.2280000D+01 0.3446000D+02 0.7749000D+01 0.2280000D+01
EXPONENTS  0.7156000D+00 0.7156000D+00 0.7156000D+00 0.2140000D+00 0.2140000D+00
EXPONENTS  0.2140000D+00 0.5974000D-01 0.5974000D-01 0.5974000D-01 0.2314000D+01
EXPONENTS  0.2314000D+01 0.2314000D+01 0.2314000D+01 0.2314000D+01 0.2314000D+01
EXPONENTS  0.6450000D+00 0.6450000D+00 0.6450000D+00 0.6450000D+00 0.6450000D+00
EXPONENTS  0.6450000D+00 0.2140000D+00 0.2140000D+00 0.2140000D+00 0.2140000D+00
EXPONENTS  0.2140000D+00 0.2140000D+00 0.1428000D+01 0.1428000D+01 0.1428000D+01
EXPONENTS  0.1428000D+01 0.1428000D+01 0.1428000D+01 0.1428000D+01 0.1428000D+01
EXPONENTS  0.1428000D+01 0.1428000D+01 0.5000000D+00 0.5000000D+00 0.5000000D+00
EXPONENTS  0.5000000D+00 0.5000000D+00 0.5000000D+00 0.5000000D+00 0.5000000D+00
EXPONENTS  0.5000000D+00 0.5000000D+00 0.3387000D+02 0.5095000D+01 0.1159000D+01
EXPONENTS  0.3258000D+00 0.1027000D+00 0.2526000D-01 0.1407000D+01 0.1407000D+01
EXPONENTS  0.1407000D+01 0.3880000D+00 0.3880000D+00 0.3880000D+00 0.1020000D+00
EXPONENTS  0.1020000D+00 0.1020000D+00 0.1057000D+01 0.1057000D+01 0.1057000D+01
EXPONENTS  0.1057000D+01 0.1057000D+01 0.1057000D+01 0.2470000D+00 0.2470000D+00
EXPONENTS  0.2470000D+00 0.2470000D+00 0.2470000D+00 0.2470000D+00 0.3387000D+02
EXPONENTS  0.5095000D+01 0.1159000D+01 0.3258000D+00 0.1027000D+00 0.2526000D-01
EXPONENTS  0.1407000D+01 0.1407000D+01 0.1407000D+01 0.3880000D+00 0.3880000D+00
EXPONENTS  0.3880000D+00 0.1020000D+00 0.1020000D+00 0.1020000D+00 0.1057000D+01
EXPONENTS  0.1057000D+01 0.1057000D+01 0.1057000D+01 0.1057000D+01 0.1057000D+01
EXPONENTS  0.2470000D+00 0.2470000D+00 0.2470000D+00 0.2470000D+00 0.2470000D+00
EXPONENTS  0.2470000D+00
MO    1     MO 0.0        OCC NO =    2.0000000  ORB. ENERGY =    0.000000
 -0.18421574D-01 -0.34334785D-01 -0.58219453D-01 -0.88108951D-01 -0.10990897D+00
 -0.94318249D-01 -0.36118879D-01  0.21553369D-04  0.23125350D-03  0.85244396D-03
  0.24924961D-02  0.30035790D-02 -0.36181292D-02 -0.42078662D-02  0.51914972D-01
  0.91300150D-02 -0.60082169D-01 -0.58259493D-01 -0.39301510D-01  0.17463765D+00
  0.16933978D+00  0.11423561D+00  0.15701164D+01  0.15224848D+01  0.10270592D+01
 -0.12578838D-01  0.30306758D-01  0.33937730D+00 -0.12020251D-02  0.10380694D-03
  0.40281715D-01 -0.14678042D-04 -0.20085524D-04  0.78406064D-03  0.43770445D-01
 -0.14496489D-02 -0.42320796D-01  0.40099179D-02  0.79296954D-02 -0.23575718D-01
  0.56936671D-02  0.63763180D-02 -0.12069985D-01 -0.88072325D-04  0.14009684D-02
  0.12213681D-02 -0.86874073D-03  0.14304811D-02 -0.56174036D-03 -0.20187356D-03
 -0.79088233D-04  0.11838219D-02  0.76008215D-03  0.14050282D-03  0.14431383D-02
 -0.47475099D-03 -0.30591115D-03 -0.18575637D-01 -0.18054955D-02 -0.11559729D-03
  0.14246222D-01 -0.21675538D-02 -0.42776837D-05  0.28803220D-03  0.67428344D-03
  0.76689717D-04  0.19260650D-03 -0.12763232D-03 -0.63856666D-04 -0.10567031D-02
 -0.18952180D-02  0.21968760D-03 -0.35998269D-01 -0.64924360D-01 -0.95730931D-01
 -0.71982011D-01 -0.98238522D-02 -0.86404561D-04  0.17857984D-02 -0.35194883D-01
 -0.81894900D-02  0.70137074D-03 -0.14687861D-01 -0.17393123D-02 -0.26682954D-04
 -0.12203615D-03  0.11413900D-02  0.56704112D-02 -0.85018814D-02  0.28314702D-02
  0.17018849D-02  0.82675387D-03 -0.14176723D-01 -0.27203024D-04 -0.18271190D-03
  0.20991492D-03 -0.10540299D-04 -0.36861912D-04  0.74945920D-03 -0.23269023D-01
 -0.41966641D-01 -0.61879787D-01 -0.45630514D-01 -0.84869745D-02 -0.14245095D-03
 -0.65529881D-03  0.21620366D-01  0.36002477D-02 -0.32435168D-03  0.11183844D-01
  0.16798835D-02 -0.37757426D-04  0.35544324D-03  0.98417555D-03  0.26114332D-02
 -0.62885875D-02  0.36771543D-02  0.31095618D-03 -0.13474507D-03  0.35159205D-02
  0.23711620D-03 -0.32871071D-03  0.91594511D-04  0.38486718D-04  0.28570263D-04
 -0.27573934D-03
MO    2     MO 0.0        OCC NO =    2.0000000  ORB. ENERGY =    0.000000
  0.46239333D+00  0.86182514D+00  0.14613456D+01  0.22115912D+01  0.27587857D+01
  0.23674486D+01  0.90660704D+00  0.19261404D-03  0.20666223D-02  0.76179589D-02
  0.22274465D-01  0.26841813D-01 -0.32333809D-01  0.34108610D-01 -0.45896001D-02
 -0.34827100D-03 -0.33279475D+00 -0.32269896D+00 -0.21769081D+00  0.52864343D+00
  0.51260631D+00  0.34580119D+00 -0.38909405D-01 -0.37729035D-01 -0.25451784D-01
 -0.74681715D-01  0.10738741D+00 -0.97533006D-02 -0.11949791D-01  0.94908679D-02
 -0.28586846D-02 -0.37647982D-03  0.73421936D-04 -0.66926082D-04 -0.16720395D-02
  0.82337361D-03  0.84866585D-03  0.28262597D-02  0.14440128D-01 -0.48012375D-01
 -0.77638783D-04 -0.25149987D-03  0.32913866D-03  0.76482107D-04  0.34747249D-02
 -0.54960979D-02 -0.93692491D-04  0.22360507D-04  0.71331984D-04 -0.85821405D-04
  0.18831344D-03  0.51043681D-03  0.19674940D-02  0.24357009D-02  0.17784842D-03
 -0.43882803D-02 -0.42675193D-02  0.17157256D-02 -0.15142018D-02 -0.30395834D-02
 -0.22492709D-02 -0.21180899D-03  0.81042726D-04  0.24875022D-04 -0.50415140D-04
 -0.13618084D-03 -0.28379104D-03 -0.11403265D-03 -0.10694734D-03  0.20916598D-03
  0.26527807D-03  0.12651178D-03 -0.15345955D-01 -0.27677061D-01 -0.40809811D-01
 -0.28639173D-01 -0.30167404D-02  0.39393052D-04 -0.37859600D-02 -0.11019921D-01
 -0.14762564D-01 -0.22265141D-02 -0.38641259D-02 -0.57391338D-02 -0.38813463D-03
  0.79394161D-04 -0.16421451D-03  0.44236523D-02 -0.22418781D-02 -0.21817742D-02
 -0.12919451D-02 -0.82363540D-03 -0.12966460D-01  0.31139318D-05  0.93640130D-04
 -0.96754062D-04 -0.24665228D-03 -0.15974806D-03 -0.16335726D-03  0.12579190D-01
  0.22687087D-01  0.33452097D-01  0.24801495D-01  0.38193011D-02 -0.24407656D-04
 -0.41437563D-02 -0.61753721D-02  0.73341513D-02 -0.22495180D-02 -0.29430523D-02
  0.33649009D-02 -0.34866821D-03 -0.14509949D-04  0.45710498D-04 -0.17820261D-02
  0.10375343D-02  0.74449182D-03  0.21212178D-02 -0.14936036D-02 -0.51216479D-02
 -0.79502591D-04  0.33204790D-04  0.46297801D-04  0.21664042D-03 -0.11471050D-03
 -0.32479230D-03
MO    3     MO 0.0        OCC NO =    2.0000000  ORB. ENERGY =    0.000000
 -0.96330968D-01 -0.17954508D+00 -0.30444392D+00 -0.46074350D+00 -0.57474120D+00
 -0.49321346D+00 -0.18887455D+00  0.11999756D-03  0.12874950D-02  0.47459491D-02
  0.13876877D-01  0.16722311D-01 -0.20143796D-01 -0.25006262D-01 -0.76889483D-02
 -0.13119886D-02  0.99438551D+00  0.96421945D+00  0.65045674D+00  0.11819599D+01
  0.11461035D+01  0.77315466D+00 -0.12656290D+00 -0.12272344D+00 -0.82788507D-01
  0.22524875D+00  0.24627911D+00 -0.31414558D-01  0.37583786D-01  0.24169205D-01
 -0.58036671D-02  0.12163576D-02  0.27578841D-03 -0.91646870D-04 -0.74234787D-03
 -0.10810161D-02  0.18233640D-02  0.23942302D-02 -0.39048402D-01 -0.10875572D+00
 -0.80315071D-03  0.45925983D-04  0.75722472D-03  0.12245217D-02 -0.10440157D-01
 -0.14878345D-01 -0.15619972D-03  0.35184111D-04  0.12101561D-03  0.13517479D-03
 -0.76010357D-03  0.65724215D-03 -0.57578371D-02  0.58165001D-02 -0.12039847D-03
  0.11406281D-01 -0.13699255D-01  0.81652806D-03  0.58672301D-02 -0.37502455D-02
 -0.45533265D-03  0.33154466D-03 -0.20903884D-03  0.92812989D-04  0.13940396D-03
  0.31482541D-03 -0.67722365D-03  0.35353540D-03  0.31229110D-03  0.39878468D-03
 -0.77174729D-03 -0.66136678D-03 -0.27676087D-01 -0.49914962D-01 -0.73599583D-01
 -0.49420216D-01 -0.45626329D-02  0.11675059D-03  0.17239245D-01 -0.14301439D-01
 -0.25597088D-01  0.89897200D-02 -0.34353658D-02 -0.90426198D-02  0.12645067D-02
  0.47674977D-03 -0.16351141D-03  0.46981758D-02 -0.84238654D-03 -0.38557892D-02
  0.85980269D-02  0.72990873D-02 -0.15691809D-01 -0.13142936D-03  0.31857717D-03
 -0.18714781D-03  0.78004900D-03  0.57345778D-03 -0.12800389D-03  0.31236678D-01
  0.56336636D-01  0.83068336D-01  0.58051701D-01  0.83267793D-02 -0.76999316D-04
  0.12721709D-01 -0.16391203D-01  0.17723287D-01  0.69754094D-02 -0.70425287D-02
  0.77962415D-02  0.11162011D-02  0.95897007D-04  0.99062946D-04 -0.54386754D-02
  0.37444923D-02  0.16941831D-02 -0.66058405D-02  0.44930833D-02 -0.15530040D-01
 -0.16393601D-03  0.23032408D-04  0.14090360D-03 -0.65799429D-03  0.36389494D-03
 -0.69652587D-03
MO    4     MO 0.0        OCC NO =    2.0000000  ORB. ENERGY =    0.000000
  0.17987104D+00  0.33525003D+00  0.56846354D+00  0.86030913D+00  0.10731678D+01
  0.92093765D+00  0.35267020D+00  0.16822532D-03  0.18049472D-02  0.66533754D-02
  0.19454079D-01  0.23443112D-01 -0.28239712D-01  0.46396613D-02 -0.75829833D-02
 -0.12056060D-03  0.14416477D+01  0.13979134D+01  0.94302410D+00 -0.67173037D+00
 -0.65135250D+00 -0.43939855D+00  0.12743613D+00  0.12357018D+00  0.83359711D-01
  0.32488014D+00 -0.13958885D+00  0.31561174D-01  0.53058967D-01 -0.12882160D-01
  0.53351245D-02  0.16915322D-02 -0.97549279D-04  0.13441160D-03  0.56450199D-02
 -0.18398325D-02 -0.38051875D-02 -0.60742795D-02 -0.60098356D-01  0.65148065D-01
  0.20620699D-02 -0.87691479D-03 -0.11851551D-02  0.61030056D-03 -0.14971168D-01
  0.91439744D-02  0.17785419D-03 -0.53321977D-04 -0.12453222D-03  0.27943336D-03
 -0.94906601D-03 -0.38582635D-03 -0.86094360D-02 -0.28417086D-02  0.35632606D-03
  0.18411976D-01  0.59167446D-02 -0.32414478D-02  0.74163323D-02  0.26083812D-02
  0.21724696D-02  0.15607749D-02 -0.29592866D-03 -0.37253943D-04 -0.69511647D-04
  0.46819086D-03  0.43654147D-03 -0.36970801D-03  0.41959513D-03 -0.32477964D-03
  0.57824295D-03 -0.87647292D-03  0.15328405D-01  0.27645409D-01  0.40763140D-01
  0.30171529D-01  0.33975859D-02 -0.61267443D-04  0.20743843D-01  0.74872318D-02
  0.14574112D-01  0.11397475D-01  0.25773128D-02  0.58099171D-02  0.17636800D-02
 -0.18099906D-03  0.17814435D-03 -0.34051860D-02  0.76002999D-03  0.26451560D-02
  0.97456163D-02  0.74788620D-02  0.90162727D-02 -0.32479527D-04 -0.13125249D-03
  0.16373201D-03  0.11132011D-02  0.75886997D-03  0.18419709D-03 -0.21234868D-01
 -0.38297958D-01 -0.56470317D-01 -0.36409946D-01 -0.44877080D-02  0.66890282D-04
  0.18146638D-01  0.12916399D-01 -0.11927138D-01  0.99086027D-02  0.46505705D-02
 -0.45963469D-02  0.15605608D-02 -0.62038779D-04  0.18567487D-04  0.36843375D-02
 -0.28361251D-02 -0.84821240D-03 -0.93575921D-02  0.65036292D-02  0.10367195D-01
  0.96990716D-04 -0.27467301D-04 -0.69523415D-04 -0.94999056D-03  0.51390072D-03
  0.39761429D-03
MO    5     MO 0.0        OCC NO =    2.0000000  ORB. ENERGY =    0.000000
 -0.59252030D-01 -0.11043604D+00 -0.18725983D+00 -0.28339784D+00 -0.35351646D+00
 -0.30336972D+00 -0.11617449D+00 -0.17188507D-02 -0.18442140D-01 -0.67981202D-01
 -0.19877305D+00 -0.23953119D+00  0.28854070D+00  0.17038151D+00  0.93017145D-01
  0.71245932D-02  0.15915666D+00  0.15432842D+00  0.10410904D+00  0.74327470D-01
  0.72072644D-01  0.48619780D-01  0.31409527D+00  0.30456675D+00  0.20545893D+00
  0.36157935D-01  0.18422296D-01  0.64577099D-01  0.58772821D-02  0.25422496D-02
  0.12399601D-01  0.19748784D-03  0.26488772D-04  0.23581426D-03 -0.13129114D-01
  0.21417747D-01 -0.82886338D-02 -0.25446475D-02 -0.75863945D-02 -0.35852545D-02
 -0.43949299D-02  0.61319073D-02 -0.17369774D-02 -0.45126306D-03 -0.19920663D-02
 -0.29904541D-02 -0.14252111D-03  0.23189357D-03 -0.89372464D-04  0.14552475D-04
 -0.12079351D-03 -0.18888962D-03 -0.10875713D-02  0.86623159D-03  0.24860690D-02
  0.24250241D-02 -0.19122058D-02  0.20383646D-02  0.83768977D-03 -0.68648900D-03
 -0.94965715D-02  0.84586006D-03 -0.28831355D-04 -0.28813665D-04 -0.15665347D-03
  0.18455872D-04 -0.36399610D-03  0.88557122D-04  0.68038193D-04  0.45043710D-03
  0.38140329D-03 -0.20290565D-03  0.13251106D-01  0.23898915D-01  0.35238937D-01
 -0.46400820D-03 -0.53818336D-02 -0.10569667D-03  0.13364399D-02  0.15489732D-01
  0.18186677D-01  0.13870281D-02 -0.14362352D-02  0.24036257D-02  0.22576677D-03
 -0.42849836D-03  0.13535719D-03 -0.15855844D-02 -0.10216540D-03  0.16877498D-02
  0.91132867D-03  0.52828676D-03  0.60941299D-02  0.12061277D-03 -0.14611283D-03
  0.25500062D-04  0.16147208D-03  0.10993140D-03 -0.14010752D-03  0.14602114D-01
  0.26335514D-01  0.38831700D-01  0.51432735D-02 -0.45391004D-02 -0.12255957D-03
  0.19508146D-02 -0.14619699D-01  0.16523645D-01  0.10241251D-02  0.11808935D-02
  0.33541112D-02  0.16757544D-03  0.52792410D-03  0.16594320D-03 -0.14047169D-02
 -0.30838642D-03  0.17131033D-02 -0.96505515D-03  0.69353769D-03 -0.56168089D-02
  0.98809860D-04 -0.21120877D-03  0.11239891D-03 -0.93534580D-04  0.63481498D-04
 -0.47405131D-04
END DATA
 TOTAL ENERGY =    -76.463283525861 THE VIRIAL(-V/T)=   2.00582673
