 31
GAUSSIAN              5 MOL ORBITALS    126 PRIMITIVES        3 NUCLEI   B3LYP   B3LYP   B3LYP
  O    1    (CENTRE  1)   0.00000000 -0.09448631  0.00815606  CHARGE =  8.0
  H    2    (CENTRE  2)  -0.09448631 -1.44255835 -1.09730160  CHARGE =  1.0
  H    3    (CENTRE  3)   0.00000000  1.44255835 -1.09730160  CHARGE =  1.0
CENTRE ASSIGNMENTS    1  1  1  1  1  1  1  1  1  1  1  1  1  1  1  1  1  1  1  1
CENTRE ASSIGNMENTS    1  1  1  1  1  1  1  1  1  1  1  1  1  1  1  1  1  1  1  1
CENTRE ASSIGNMENTS    1  1  1  1  1  1  1  1  1  1  1  1  1  1  1  1  1  1  1  1
CENTRE ASSIGNMENTS    1  1  1  1  1  1  1  1  1  1  1  1  2  2  2  2  2  2  2  2
CENTRE ASSIGNMENTS    2  2  2  2  2  2  2  2  2  2  2  2  2  2  2  2  2  2  2  3
CENTRE ASSIGNMENTS    3  3  3  3  3  3  3  3  3  3  3  3  3  3  3  3  3  3  3  3
CENTRE ASSIGNMENTS    3  3  3  3  3  3
TYPE ASSIGNMENTS      1  1  1  1  1  1  1  1  1  1  1  1  1  1  1  1  2  2  2  3
TYPE ASSIGNMENTS      3  3  4  4  4  2  3  4  2  3  4  2  3  4  5  6  7  8  9 10
TYPE ASSIGNMENTS      5  6  7  8  9 10  5  6  7  8  9 10 11 12 13 17 14 15 18 19
TYPE ASSIGNMENTS     16 20 11 12 13 17 14 15 18 19 16 20  1  1  1  1  1  1  2  3
TYPE ASSIGNMENTS      4  2  3  4  2  3  4  5  6  7  8  9 10  5  6  7  8  9 10  1
TYPE ASSIGNMENTS      1  1  1  1  1  2  3  4  2  3  4  2  3  4  5  6  7  8  9 10
TYPE ASSIGNMENTS      5  6  7  8  9 10
EXPONENTS  0.1533000D+05 0.2299000D+04 0.5224000D+03 0.1473000D+03 0.4755000D+02
EXPONENTS  0.1676000D+02 0.6207000D+01 0.5224000D+03 0.1473000D+03 0.4755000D+02
EXPONENTS  0.1676000D+02 0.6207000D+01 0.6882000D+00 0.1752000D+01 0.2384000D+00
EXPONENTS  0.7376000D-01 0.3446000D+02 0.7749000D+01 0.2280000D+01 0.3446000D+02
EXPONENTS  0.7749000D+01 0.2280000D+01 0.3446000D+02 0.7749000D+01 0.2280000D+01
EXPONENTS  0.7156000D+00 0.7156000D+00 0.7156000D+00 0.2140000D+00 0.2140000D+00
EXPONENTS  0.2140000D+00 0.5974000D-01 0.5974000D-01 0.5974000D-01 0.2314000D+01
EXPONENTS  0.2314000D+01 0.2314000D+01 0.2314000D+01 0.2314000D+01 0.2314000D+01
EXPONENTS  0.6450000D+00 0.6450000D+00 0.6450000D+00 0.6450000D+00 0.6450000D+00
EXPONENTS  0.6450000D+00 0.2140000D+00 0.2140000D+00 0.2140000D+00 0.2140000D+00
EXPONENTS  0.2140000D+00 0.2140000D+00 0.1428000D+01 0.1428000D+01 0.1428000D+01
EXPONENTS  0.1428000D+01 0.1428000D+01 0.1428000D+01 0.1428000D+01 0.1428000D+01
EXPONENTS  0.1428000D+01 0.1428000D+01 0.5000000D+00 0.5000000D+00 0.5000000D+00
EXPONENTS  0.5000000D+00 0.5000000D+00 0.5000000D+00 0.5000000D+00 0.5000000D+00
EXPONENTS  0.5000000D+00 0.5000000D+00 0.3387000D+02 0.5095000D+01 0.1159000D+01
EXPONENTS  0.3258000D+00 0.1027000D+00 0.2526000D-01 0.1407000D+01 0.1407000D+01
EXPONENTS  0.1407000D+01 0.3880000D+00 0.3880000D+00 0.3880000D+00 0.1020000D+00
EXPONENTS  0.1020000D+00 0.1020000D+00 0.1057000D+01 0.1057000D+01 0.1057000D+01
EXPONENTS  0.1057000D+01 0.1057000D+01 0.1057000D+01 0.2470000D+00 0.2470000D+00
EXPONENTS  0.2470000D+00 0.2470000D+00 0.2470000D+00 0.2470000D+00 0.3387000D+02
EXPONENTS  0.5095000D+01 0.1159000D+01 0.3258000D+00 0.1027000D+00 0.2526000D-01
EXPONENTS  0.1407000D+01 0.1407000D+01 0.1407000D+01 0.3880000D+00 0.3880000D+00
EXPONENTS  0.3880000D+00 0.1020000D+00 0.1020000D+00 0.1020000D+00 0.1057000D+01
EXPONENTS  0.1057000D+01 0.1057000D+01 0.1057000D+01 0.1057000D+01 0.1057000D+01
EXPONENTS  0.2470000D+00 0.2470000D+00 0.2470000D+00 0.2470000D+00 0.2470000D+00
EXPONENTS  0.2470000D+00
MO    1     MO 0.0        OCC NO =    2.0000000  ORB. ENERGY =    0.000000
  0.49166093D+00  0.91637514D+00  0.15538428D+01  0.23515759D+01  0.29334056D+01
  0.25172984D+01  0.96399155D+00  0.34419169D-03  0.36929509D-02  0.13612912D-01
  0.39803357D-01  0.47964981D-01 -0.57778903D-01  0.22147450D-01 -0.11042561D-01
 -0.56926997D-03  0.22852949D+00  0.22159673D+00  0.14948784D+00  0.32725408D+00
  0.31732637D+00  0.21406650D+00  0.95544927D-02  0.92646440D-02  0.62498741D-02
  0.51284328D-01  0.65105304D-01  0.19083063D-02  0.81727850D-02  0.53271921D-02
 -0.14429320D-02  0.25782046D-03  0.32853686D-04 -0.36337696D-04  0.15394902D-02
 -0.11537262D-02 -0.38576393D-03 -0.20714650D-02 -0.10117068D-01 -0.29520746D-01
  0.79979410D-03 -0.69022362D-03 -0.10957048D-03 -0.90101335D-04 -0.24516363D-02
 -0.26183041D-02 -0.68106331D-04  0.34148794D-04  0.33957537D-04  0.64581725D-04
 -0.12695101D-03  0.44356121D-03 -0.13528627D-02  0.14489255D-02  0.71238360D-04
  0.29691661D-02 -0.20841535D-02  0.46835111D-03  0.10894221D-02 -0.22626229D-02
 -0.68206619D-03  0.15502571D-03 -0.59042735D-04  0.22264427D-04 -0.38384542D-04
  0.95641443D-04 -0.12674855D-03 -0.20344510D-03  0.81486762D-04  0.59955274D-04
  0.31859873D-03 -0.83220544D-04 -0.12792800D-01 -0.23072342D-01 -0.34020155D-01
 -0.21916376D-01 -0.19593665D-02  0.26697656D-04  0.23941722D-02 -0.10899462D-01
 -0.12096754D-01  0.14805066D-02 -0.34650163D-02 -0.43340896D-02  0.26613621D-03
  0.44827428D-04 -0.10133190D-03  0.37823905D-02 -0.22673514D-02 -0.15150391D-02
  0.68656296D-03  0.42075184D-03 -0.11105087D-01 -0.10165694D-05  0.53988428D-04
 -0.52971859D-04  0.16947493D-03  0.11163806D-03 -0.91374453D-04  0.49564403D-02
  0.89391441D-02  0.13180763D-01  0.12767527D-01  0.25667403D-02 -0.24175394D-05
  0.28420991D-02 -0.10951354D-02  0.28324521D-02  0.15370888D-02 -0.14368743D-02
  0.17958371D-02  0.23817088D-03 -0.63916159D-04  0.54038864D-04 -0.59873289D-03
  0.15968076D-03  0.43905213D-03 -0.14499643D-02  0.10180075D-02 -0.17455043D-02
 -0.52333724D-04  0.34776505D-04  0.17557219D-04 -0.14724403D-03  0.77508373D-04
 -0.21036487D-03
MO    2     MO 0.0        OCC NO =    2.0000000  ORB. ENERGY =    0.000000
  0.12101604D-01  0.22555399D-01  0.38245849D-01  0.57881025D-01  0.72202017D-01
  0.61960072D-01  0.23727416D-01 -0.44025813D-03 -0.47236808D-02 -0.17412377D-01
 -0.50912769D-01 -0.61352362D-01  0.73905422D-01  0.46529907D-01 -0.27027948D-01
 -0.70902732D-02  0.64191655D-01  0.62244313D-01  0.41989646D-01 -0.18970964D-01
 -0.18395454D-01 -0.12409465D-01 -0.14528140D+01 -0.14087409D+01 -0.95032828D+00
  0.15276292D-01  0.23836991D-02 -0.31543078D+00  0.32897716D-02  0.30139297D-02
 -0.36618848D-01  0.12452135D-03  0.46536502D-04 -0.71778035D-03 -0.46011460D-01
  0.68126508D-02  0.39198809D-01  0.35755705D-02  0.26878070D-02  0.94274729D-02
 -0.67854442D-02 -0.45671149D-02  0.11352559D-01  0.62740444D-04  0.16369391D-03
 -0.35465882D-02  0.77229836D-03 -0.13115040D-02  0.53920568D-03 -0.16403868D-03
 -0.14842319D-03 -0.10957791D-02  0.33542006D-04  0.65744191D-03 -0.81574250D-03
  0.10402031D-02 -0.13602894D-02  0.18839625D-01 -0.11408291D-02 -0.61203633D-03
 -0.16392398D-01 -0.21107554D-02 -0.30818400D-04 -0.27646014D-03 -0.67933954D-03
  0.12339972D-03 -0.35277459D-03  0.18400795D-03 -0.30944519D-04  0.11821550D-02
  0.18540107D-02  0.16886086D-03  0.34607505D-01  0.62416060D-01  0.92032444D-01
  0.62975999D-01  0.74867789D-02  0.69048132D-04  0.35809564D-02  0.35776723D-01
  0.92208666D-02  0.15593266D-02  0.13175308D-01  0.10678802D-02  0.11386771D-03
  0.47854987D-04 -0.10982662D-02 -0.50834792D-02  0.79047587D-02 -0.28212795D-02
  0.24020587D-02  0.13993555D-02  0.12968820D-01  0.56579373D-04  0.16698823D-03
 -0.22356761D-03  0.73796794D-04  0.20449928D-04 -0.78796455D-03  0.29662578D-01
  0.53497681D-01  0.78882300D-01  0.51856362D-01  0.79649613D-02  0.96913754D-04
  0.91091974D-03 -0.26464755D-01  0.26655680D-02  0.53809272D-03 -0.11306907D-01
  0.70467502D-04  0.95334829D-04 -0.20633613D-03 -0.90339088D-03 -0.34763426D-02
  0.64234927D-02 -0.29471502D-02 -0.50365575D-03  0.42593330D-03 -0.65108258D-02
 -0.22309505D-03  0.27060787D-03 -0.47512818D-04 -0.45881411D-04  0.68880855D-04
  0.17544222D-03
MO    3     MO 0.0        OCC NO =    2.0000000  ORB. ENERGY =    0.000000
 -0.81353945D-02 -0.15163038D-01 -0.25711061D-01 -0.38910957D-01 -0.48538352D-01
 -0.41653128D-01 -0.15950935D-01 -0.30830042D-03 -0.33078612D-02 -0.12193399D-01
 -0.35652784D-01 -0.42963338D-01  0.51753894D-01  0.31602362D-01  0.19854447D-01
  0.22154928D-02  0.15435048D+01  0.14966804D+01  0.10096518D+01 -0.70606185D+00
 -0.68464248D+00 -0.46185578D+00  0.15837929D+00  0.15357464D+00  0.10360054D+00
  0.34877982D+00 -0.14740061D+00  0.35658882D-01  0.57617450D-01 -0.14949013D-01
  0.56489348D-02  0.18508046D-02 -0.19512531D-03  0.76468956D-04 -0.58958849D-03
  0.32778137D-02 -0.26882252D-02 -0.79395701D-03 -0.62458794D-01  0.63212693D-01
 -0.27951647D-03  0.11621210D-02 -0.88260452D-03  0.13995242D-02 -0.16146077D-01
  0.85935943D-02 -0.39912596D-05  0.88325301D-04 -0.84334042D-04  0.26007762D-03
 -0.11011512D-02 -0.34566240D-03 -0.90713705D-02 -0.36959931D-02  0.19325250D-03
  0.18534367D-01  0.90754575D-02 -0.48729300D-04  0.86797444D-02  0.20125219D-02
 -0.53102821D-03  0.10839610D-02 -0.32046601D-03 -0.50351615D-04 -0.63889090D-04
  0.49121514D-03  0.37270195D-03 -0.13499878D-03  0.47018289D-03 -0.22164710D-03
  0.32666605D-03 -0.99082173D-03  0.16090785D-01  0.29020393D-01  0.42790552D-01
  0.25260394D-01  0.14880726D-02 -0.85831733D-04  0.24708704D-01  0.82600509D-02
  0.16481710D-01  0.13120699D-01  0.91323035D-03  0.52849944D-02  0.19256818D-02
 -0.37011246D-03  0.13133370D-03 -0.23365262D-02 -0.77322641D-04  0.24138489D-02
  0.11980894D-01  0.98476045D-02  0.92248475D-02  0.13775644D-03 -0.23801394D-03
  0.10025751D-03  0.11978884D-02  0.85480455D-03  0.56311362D-04 -0.17603661D-01
 -0.31748928D-01 -0.46813776D-01 -0.35879766D-01 -0.59803511D-02  0.19443142D-04
  0.19606938D-01  0.84043258D-02 -0.85443869D-02  0.10732582D-01  0.46774194D-02
 -0.43434816D-02  0.17046187D-02  0.26017895D-05 -0.30657826D-04  0.30732060D-02
 -0.23080362D-02 -0.76516984D-03 -0.10152234D-01  0.69638395D-02  0.85194163D-02
  0.11814299D-03 -0.40346207D-04 -0.77796782D-04 -0.10202755D-02  0.55530349D-03
  0.40570470D-03
MO    4     MO 0.0        OCC NO =    2.0000000  ORB. ENERGY =    0.000000
 -0.12754480D+00 -0.23772254D+00 -0.40309198D+00 -0.61003685D+00 -0.76097288D+00
 -0.65302795D+00 -0.25007501D+00  0.81549250D-04  0.87496994D-03  0.32253039D-02
  0.94305995D-02  0.11364331D-01 -0.13689541D-01 -0.24786087D-01 -0.23604331D-03
 -0.24898385D-03  0.85190963D+00  0.82606578D+00  0.55725909D+00  0.12193161D+01
  0.11823264D+01  0.79759041D+00 -0.47368932D-01 -0.45931930D-01 -0.30985409D-01
  0.19132459D+00  0.25249138D+00 -0.15523069D-01  0.30754581D-01  0.23576831D-01
 -0.48195866D-02  0.96987038D-03  0.21922632D-03 -0.11154908D-03 -0.13873298D-03
 -0.67580809D-03  0.81454107D-03 -0.73794851D-02 -0.37321509D-01 -0.11597863D+00
 -0.12527615D-02  0.86202574D-03  0.39073572D-03 -0.81343050D-04 -0.89001943D-02
 -0.15268497D-01 -0.31317286D-03  0.18613794D-03  0.12703492D-03  0.21225608D-03
 -0.49697469D-03  0.84573842D-03 -0.52186599D-02  0.54640472D-02 -0.39891620D-03
  0.11505048D-01 -0.11986171D-01  0.14611640D-02  0.41509311D-02 -0.44059709D-02
 -0.26441542D-03  0.15055761D-02 -0.17257000D-03  0.10940221D-03  0.19560697D-03
  0.27258157D-03 -0.68568253D-03  0.44664728D-03  0.24512844D-03  0.35747590D-03
 -0.10334682D-02 -0.50663943D-03 -0.32979421D-01 -0.59479744D-01 -0.87702848D-01
 -0.60278064D-01 -0.60240389D-02  0.11324033D-03  0.10410540D-01 -0.19451602D-01
 -0.28969291D-01  0.60463028D-02 -0.57146529D-02 -0.10443752D-01  0.10150346D-02
  0.41265193D-03 -0.15432497D-03  0.64681974D-02 -0.22038627D-02 -0.42643346D-02
  0.45252070D-02  0.31547052D-02 -0.18897977D-01 -0.44996592D-04  0.26946571D-03
 -0.22446912D-03  0.65025126D-03  0.42552918D-03 -0.15865239D-03  0.31277090D-01
  0.56409521D-01  0.83175805D-01  0.57263297D-01  0.78593588D-02 -0.10107037D-03
  0.10607256D-01 -0.16396819D-01  0.18635965D-01  0.57698460D-02 -0.67357183D-02
  0.79853685D-02  0.89891891D-03  0.87521001D-04  0.11914984D-03 -0.56061505D-02
  0.37566117D-02  0.18495388D-02 -0.54402746D-02  0.38234238D-02 -0.16133721D-01
 -0.15679051D-03  0.24604840D-04  0.13218567D-03 -0.55867556D-03  0.29439291D-03
 -0.73859190D-03
MO    5     MO 0.0        OCC NO =    2.0000000  ORB. ENERGY =    0.000000
 -0.32866551D-01 -0.61257846D-01 -0.10387129D+00 -0.15719815D+00 -0.19609230D+00
 -0.16827637D+00 -0.64440908D-01 -0.16188629D-02 -0.17369337D-01 -0.64026646D-01
 -0.18721016D+00 -0.22559734D+00  0.27175591D+00  0.16306195D+00  0.10118467D+00
  0.89670340D-02 -0.20576819D+00 -0.19952593D+00 -0.13459902D+00  0.26650998D+00
  0.25842503D+00  0.17433200D+00  0.67794238D+00  0.65737606D+00  0.44346201D+00
 -0.47023162D-01  0.56614147D-01  0.14287239D+00 -0.79591464D-02  0.54633555D-02
  0.21178384D-01 -0.27139964D-03  0.51883475D-04  0.40802503D-03 -0.19097529D-02
  0.20176938D-01 -0.18267185D-01  0.10043832D-02  0.78718075D-02 -0.23209775D-01
 -0.28821868D-02  0.74607974D-02 -0.45786105D-02  0.33440340D-03  0.22783620D-02
 -0.43827390D-02 -0.37504009D-03  0.58393000D-03 -0.20888991D-03  0.30211671D-04
  0.19268600D-03  0.21506796D-03  0.12454352D-02  0.16006018D-02  0.27512342D-02
 -0.29462443D-02 -0.35232064D-02 -0.24573199D-02 -0.79006121D-03 -0.12785991D-02
 -0.57963828D-02 -0.28899759D-03  0.42116356D-04  0.54622376D-04  0.26191768D-04
 -0.55830685D-04 -0.38696993D-03  0.76418671D-04 -0.70518381D-04  0.22310280D-03
 -0.15499397D-03  0.19286911D-03 -0.23975326D-04 -0.43240488D-04 -0.63758074D-04
 -0.25232316D-01 -0.82788741D-02 -0.10910032D-03 -0.30581935D-02  0.39082711D-02
  0.11880635D-01 -0.21809881D-02 -0.56644025D-02  0.58014179D-03 -0.29922474D-03
 -0.39152734D-03  0.38601681D-03  0.67772942D-03 -0.24731805D-02  0.17954510D-02
 -0.20096240D-02 -0.13372837D-02 -0.16854775D-03  0.97066731D-04 -0.14885388D-03
  0.51787145D-04 -0.20684238D-03 -0.13803429D-03  0.27191820D-04  0.12123314D-01
  0.21864895D-01  0.32239775D-01  0.92764163D-03 -0.53973254D-02 -0.16223650D-03
 -0.25874686D-02 -0.10665133D-01  0.18992634D-01 -0.13854584D-02  0.30332403D-02
  0.46303862D-02 -0.22964644D-03  0.60330156D-03  0.41739006D-03 -0.13435051D-02
 -0.14341623D-02  0.27776674D-02  0.13071868D-02 -0.94000245D-03 -0.63629656D-02
  0.13243529D-03 -0.27995739D-03  0.14752210D-03  0.12544026D-03 -0.93471206D-04
 -0.20461480D-03
END DATA
 TOTAL ENERGY =    -76.463283525861 THE VIRIAL(-V/T)=   2.00582673
