 32
GAUSSIAN              5 MOL ORBITALS    126 PRIMITIVES        3 NUCLEI   B3LYP   B3LYP   B3LYP
  O    1    (CENTRE  1)   0.00000000  0.00000000  0.10264236  CHARGE =  8.0
  H    2    (CENTRE  2)   0.09448631 -1.44255835 -1.09730160  CHARGE =  1.0
  H    3    (CENTRE  3)   0.00000000  1.44255835 -1.09730160  CHARGE =  1.0
CENTRE ASSIGNMENTS    1  1  1  1  1  1  1  1  1  1  1  1  1  1  1  1  1  1  1  1
CENTRE ASSIGNMENTS    1  1  1  1  1  1  1  1  1  1  1  1  1  1  1  1  1  1  1  1
CENTRE ASSIGNMENTS    1  1  1  1  1  1  1  1  1  1  1  1  1  1  1  1  1  1  1  1
CENTRE ASSIGNMENTS    1  1  1  1  1  1  1  1  1  1  1  1  2  2  2  2  2  2  2  2
CENTRE ASSIGNMENTS    2  2  2  2  2  2  2  2  2  2  2  2  2  2  2  2  2  2  2  3
CENTRE ASSIGNMENTS    3  3  3  3  3  3  3  3  3  3  3  3  3  3  3  3  3  3  3  3
CENTRE ASSIGNMENTS    3  3  3  3  3  3
TYPE ASSIGNMENTS      1  1  1  1  1  1  1  1  1  1  1  1  1  1  1  1  2  2  2  3
TYPE ASSIGNMENTS      3  3  4  4  4  2  3  4  2  3  4  2  3  4  5  6  7  8  9 10
TYPE ASSIGNMENTS      5  6  7  8  9 10  5  6  7  8  9 10 11 12 13 17 14 15 18 19
TYPE ASSIGNMENTS     16 20 11 12 13 17 14 15 18 19 16 20  1  1  1  1  1  1  2  3
TYPE ASSIGNMENTS      4  2  3  4  2  3  4  5  6  7  8  9 10  5  6  7  8  9 10  1
TYPE ASSIGNMENTS      1  1  1  1  1  2  3  4  2  3  4  2  3  4  5  6  7  8  9 10
TYPE ASSIGNMENTS      5  6  7  8  9 10
EXPONENTS  0.1533000D+05 0.2299000D+04 0.5224000D+03 0.1473000D+03 0.4755000D+02
EXPONENTS  0.1676000D+02 0.6207000D+01 0.5224000D+03 0.1473000D+03 0.4755000D+02
EXPONENTS  0.1676000D+02 0.6207000D+01 0.6882000D+00 0.1752000D+01 0.2384000D+00
EXPONENTS  0.7376000D-01 0.3446000D+02 0.7749000D+01 0.2280000D+01 0.3446000D+02
EXPONENTS  0.7749000D+01 0.2280000D+01 0.3446000D+02 0.7749000D+01 0.2280000D+01
EXPONENTS  0.7156000D+00 0.7156000D+00 0.7156000D+00 0.2140000D+00 0.2140000D+00
EXPONENTS  0.2140000D+00 0.5974000D-01 0.5974000D-01 0.5974000D-01 0.2314000D+01
EXPONENTS  0.2314000D+01 0.2314000D+01 0.2314000D+01 0.2314000D+01 0.2314000D+01
EXPONENTS  0.6450000D+00 0.6450000D+00 0.6450000D+00 0.6450000D+00 0.6450000D+00
EXPONENTS  0.6450000D+00 0.2140000D+00 0.2140000D+00 0.2140000D+00 0.2140000D+00
EXPONENTS  0.2140000D+00 0.2140000D+00 0.1428000D+01 0.1428000D+01 0.1428000D+01
EXPONENTS  0.1428000D+01 0.1428000D+01 0.1428000D+01 0.1428000D+01 0.1428000D+01
EXPONENTS  0.1428000D+01 0.1428000D+01 0.5000000D+00 0.5000000D+00 0.5000000D+00
EXPONENTS  0.5000000D+00 0.5000000D+00 0.5000000D+00 0.5000000D+00 0.5000000D+00
EXPONENTS  0.5000000D+00 0.5000000D+00 0.3387000D+02 0.5095000D+01 0.1159000D+01
EXPONENTS  0.3258000D+00 0.1027000D+00 0.2526000D-01 0.1407000D+01 0.1407000D+01
EXPONENTS  0.1407000D+01 0.3880000D+00 0.3880000D+00 0.3880000D+00 0.1020000D+00
EXPONENTS  0.1020000D+00 0.1020000D+00 0.1057000D+01 0.1057000D+01 0.1057000D+01
EXPONENTS  0.1057000D+01 0.1057000D+01 0.1057000D+01 0.2470000D+00 0.2470000D+00
EXPONENTS  0.2470000D+00 0.2470000D+00 0.2470000D+00 0.2470000D+00 0.3387000D+02
EXPONENTS  0.5095000D+01 0.1159000D+01 0.3258000D+00 0.1027000D+00 0.2526000D-01
EXPONENTS  0.1407000D+01 0.1407000D+01 0.1407000D+01 0.3880000D+00 0.3880000D+00
EXPONENTS  0.3880000D+00 0.1020000D+00 0.1020000D+00 0.1020000D+00 0.1057000D+01
EXPONENTS  0.1057000D+01 0.1057000D+01 0.1057000D+01 0.1057000D+01 0.1057000D+01
EXPONENTS  0.2470000D+00 0.2470000D+00 0.2470000D+00 0.2470000D+00 0.2470000D+00
EXPONENTS  0.2470000D+00
MO    1     MO 0.0        OCC NO =    2.0000000  ORB. ENERGY =    0.000000
  0.48691376D+00  0.90752719D+00  0.15388399D+01  0.23288705D+01  0.29050824D+01
  0.24929929D+01  0.95468384D+00  0.21296124D-03  0.22849343D-02  0.84226981D-02
  0.24627475D-01  0.29677305D-01 -0.35749459D-01  0.35670764D-01 -0.14762898D-01
 -0.17628142D-02  0.10840567D+00  0.10511703D+00  0.70911331D-01 -0.34492761D+00
 -0.33446376D+00 -0.22562728D+00 -0.21243545D+00 -0.20599093D+00 -0.13896026D+00
  0.24180027D-01 -0.73087254D-01 -0.44093135D-01  0.38168781D-02 -0.78198349D-02
 -0.56475497D-02  0.11581115D-03 -0.88995020D-04 -0.10428919D-03 -0.55894881D-02
 -0.13358366D-03  0.57230717D-02 -0.16448003D-02 -0.55172586D-02  0.32556616D-01
  0.54871640D-04 -0.15978369D-02  0.15429652D-02 -0.97550954D-04 -0.12595681D-02
  0.51671424D-02  0.14779283D-03 -0.21995275D-03  0.72159916D-04  0.23932718D-04
 -0.64733893D-04 -0.35438440D-05 -0.76115736D-03 -0.14119943D-02 -0.19472539D-03
  0.14898220D-02  0.37940939D-02  0.27421713D-02  0.79365007D-03  0.44188892D-03
 -0.21579951D-02  0.59875482D-03 -0.27507818D-04 -0.21856641D-04 -0.18263453D-03
  0.33939447D-04  0.29407648D-03 -0.24529983D-03  0.48584006D-04 -0.22850655D-03
  0.79320343D-03 -0.25564391D-04  0.10952853D-01  0.19753921D-01  0.29127146D-01
  0.22274216D-01  0.35524740D-02 -0.63777757D-05  0.77217423D-03  0.54899618D-02
  0.49877998D-02  0.44207719D-03  0.28309807D-02  0.23062409D-02  0.10238003D-03
 -0.26846850D-04 -0.87677220D-04 -0.12259044D-02  0.71416793D-03  0.51173643D-03
  0.32002707D-03  0.21354010D-03  0.30584930D-02 -0.72743133D-04  0.13886466D-04
  0.58856667D-04  0.44915320D-04  0.21340267D-04  0.15350818D-03 -0.63838777D-02
 -0.11513586D-01 -0.16976776D-01 -0.89655751D-02 -0.43803197D-03  0.60597917D-04
  0.13670691D-02  0.22271663D-02 -0.73236701D-02  0.73422986D-03  0.57513250D-04
 -0.27630769D-02  0.11001530D-03 -0.14792216D-03 -0.17559353D-03  0.17792385D-02
 -0.17215751D-03 -0.16070809D-02 -0.66534289D-03  0.52918377D-03  0.57248681D-02
  0.91458498D-05  0.67295827D-04 -0.76441677D-04 -0.68416257D-04  0.36942250D-04
  0.19940890D-03
MO    2     MO 0.0        OCC NO =    2.0000000  ORB. ENERGY =    0.000000
  0.12976937D+00  0.24186878D+00  0.41012250D+00  0.62067679D+00  0.77424538D+00
  0.66441772D+00  0.25443669D+00  0.16745172D-03  0.17966471D-02  0.66227795D-02
  0.19364619D-01  0.23335307D-01 -0.28109850D-01 -0.17267822D-02 -0.31254604D-02
  0.36171409D-03  0.17165304D-02  0.16644571D-02  0.11228329D-02  0.14070702D+01
  0.13643847D+01  0.92040588D+00  0.14460095D+00  0.14021428D+00  0.94587724D-01
  0.10312226D-02  0.29841858D+00  0.32531169D-01  0.81390740D-03  0.32131858D-01
  0.37114550D-02  0.50502886D-04  0.37734469D-03  0.69192543D-04  0.52924687D-02
 -0.10771434D-02 -0.42153253D-02  0.56333481D-02  0.29512938D-02 -0.13220910D+00
  0.12522487D-02  0.65276739D-04 -0.13175255D-02  0.90876798D-03  0.30895478D-03
 -0.21079947D-01 -0.25560108D-04  0.94371435D-04 -0.68811327D-04 -0.80722992D-05
 -0.39460717D-04  0.71157662D-06  0.29432597D-03  0.58554524D-02  0.10432200D-03
 -0.10892034D-02 -0.15966050D-01 -0.21763051D-02  0.20622552D-03 -0.16003072D-02
  0.18633391D-02 -0.14021940D-02  0.29826797D-04  0.93235657D-04  0.56737792D-04
 -0.61982515D-04 -0.12019688D-02 -0.17227434D-03 -0.27497875D-04  0.92226179D-03
  0.20609668D-05 -0.17892613D-03 -0.39410702D-01 -0.71078824D-01 -0.10480568D+00
 -0.69487735D-01 -0.87031230D-02  0.13349389D-03  0.23692449D-02 -0.19407584D-01
 -0.26450328D-01  0.10224120D-02 -0.70409518D-02 -0.10542138D-01  0.50805511D-04
  0.36411411D-03 -0.92259139D-04  0.66271864D-02 -0.25142256D-02 -0.41129608D-02
  0.17098159D-02  0.17582895D-02 -0.19440440D-01  0.17285793D-03  0.92434038D-04
 -0.26529197D-03  0.67016743D-04  0.79683450D-04 -0.69854312D-03  0.30597004D-01
  0.55182958D-01  0.81367239D-01  0.56562241D-01  0.73597393D-02 -0.13872687D-03
  0.15229311D-03 -0.11338035D-01  0.23196890D-01  0.13188574D-03 -0.43562308D-02
  0.98691972D-02  0.36614098D-04  0.38243158D-03  0.25646433D-03 -0.52626327D-02
  0.83919100D-03  0.44234417D-02 -0.12283809D-03  0.23042425D-04 -0.15717680D-01
 -0.13664843D-03 -0.14437498D-03  0.28102342D-03 -0.58562941D-05  0.12427345D-04
 -0.70699430D-03
MO    3     MO 0.0        OCC NO =    2.0000000  ORB. ENERGY =    0.000000
 -0.60918067D-01 -0.11354126D+00 -0.19252516D+00 -0.29136636D+00 -0.36345657D+00
 -0.31189981D+00 -0.11944106D+00 -0.64867695D-03 -0.69598780D-02 -0.25655421D-01
 -0.75014946D-01 -0.90396657D-01  0.10889235D+00  0.58642042D-01 -0.10236441D-01
 -0.57693555D-02  0.51166752D-01  0.49614538D-01  0.33469674D-01  0.21940665D+00
  0.21275065D+00  0.14352033D+00 -0.13173856D+01 -0.12774209D+01 -0.86174057D+00
  0.11330491D-01  0.46447945D-01 -0.28920898D+00  0.14156175D-02  0.49632171D-02
 -0.33888424D-01  0.30631248D-04  0.58377278D-04 -0.62461692D-03 -0.44311184D-01
  0.68022641D-02  0.37508919D-01 -0.25396681D-02 -0.60336907D-02 -0.20798153D-01
 -0.78498453D-02 -0.33813769D-02  0.11231222D-01 -0.16661707D-03 -0.14693583D-02
 -0.32552726D-02  0.46788693D-03 -0.10249505D-02  0.55706359D-03  0.97265655D-04
 -0.12578308D-04  0.15512585D-04 -0.69273560D-03  0.91443215D-03 -0.11363242D-02
  0.42061756D-03 -0.25530642D-02  0.18616856D-01  0.16575892D-02 -0.19023223D-03
 -0.15207883D-01  0.20437359D-02 -0.23860879D-04  0.16175545D-04 -0.68566265D-03
 -0.63643721D-04 -0.17916286D-03  0.70229223D-03  0.13522636D-03  0.13063623D-03
  0.13546957D-02 -0.66959201D-04  0.26653779D-01  0.48071189D-01  0.70880940D-01
  0.43990802D-01  0.60114005D-02  0.90601045D-04 -0.95630964D-03  0.26372521D-01
  0.44836712D-02 -0.30783755D-03  0.10436409D-01  0.29985456D-03  0.30160724D-04
  0.23708278D-03 -0.78298778D-03 -0.33208107D-02  0.58377995D-02 -0.25169888D-02
 -0.85621444D-03 -0.27864470D-03  0.75335900D-02 -0.15285644D-03  0.25688625D-03
 -0.10402981D-03 -0.15422436D-04  0.49719024D-05 -0.18783851D-03  0.37553652D-01
  0.67729559D-01  0.99867195D-01  0.63641632D-01  0.84874223D-02  0.48112922D-04
  0.62551259D-03 -0.31283015D-01  0.12270771D-01  0.30948042D-03 -0.12236003D-01
  0.34815389D-02  0.39881412D-04 -0.11792531D-03 -0.73135723D-03 -0.52177187D-02
  0.64042906D-02 -0.11865719D-02 -0.28709350D-03  0.14421785D-03 -0.13096441D-01
 -0.19698214D-03  0.21876818D-03 -0.21786040D-04 -0.30647956D-04 -0.10472517D-04
 -0.21862253D-04
MO    4     MO 0.0        OCC NO =    2.0000000  ORB. ENERGY =    0.000000
 -0.36602665D-01 -0.68221349D-01 -0.11567888D+00 -0.17506769D+00 -0.21838315D+00
 -0.18740523D+00 -0.71766247D-01 -0.15457333D-02 -0.16584704D-01 -0.61134343D-01
 -0.17875323D+00 -0.21540634D+00  0.25947976D+00  0.15574259D+00  0.10221526D+00
  0.96099880D-02  0.47759201D+00  0.46310360D+00  0.31240695D+00  0.20654115D-01
  0.20027544D-01  0.13510463D-01  0.82782701D+00  0.80271373D+00  0.54150594D+00
  0.10835203D+00  0.46146060D-02  0.17567778D+00  0.18210152D-01  0.71840079D-03
  0.24994748D-01  0.60749708D-03  0.21566647D-04  0.45877731D-03  0.45594985D-02
  0.16400551D-01 -0.20960050D-01 -0.73904254D-03 -0.18418253D-01 -0.10830594D-02
 -0.19720663D-02  0.75175062D-02 -0.55454399D-02 -0.62294989D-03 -0.53098081D-02
 -0.24434846D-03 -0.39112079D-03  0.68167983D-03 -0.29055903D-03 -0.71485325D-04
 -0.41546924D-03 -0.16781998D-04 -0.28121480D-02  0.21333459D-03  0.30818993D-02
  0.59402501D-02 -0.72277472D-03 -0.50601398D-02  0.24961939D-02  0.82770951D-04
 -0.41855583D-02 -0.70231069D-04 -0.15796915D-03  0.86280390D-05  0.22435566D-03
  0.27622780D-03 -0.35603716D-04  0.10643444D-04  0.19767965D-03  0.97195987D-05
 -0.68371041D-03  0.49742763D-04  0.64990802D-03  0.11721359D-02  0.17283137D-02
 -0.19844254D-01 -0.80851509D-02 -0.14615872D-03  0.59714590D-02  0.30210648D-02
  0.13720503D-01  0.37106037D-02 -0.56446568D-02  0.19094908D-02  0.56587425D-03
 -0.52907151D-03  0.40453250D-03  0.14888703D-03 -0.25274381D-02  0.23785510D-02
  0.34047855D-02  0.23879088D-02  0.10277992D-02  0.13640640D-03 -0.22224398D-03
  0.85837583D-04  0.34959700D-03  0.21561313D-03  0.37957291D-05  0.90971086D-03
  0.16407010D-02  0.24192127D-02 -0.19445026D-01 -0.80276771D-02 -0.14704683D-03
  0.61706092D-02 -0.27195433D-02  0.13922839D-01  0.33416562D-02  0.58429218D-02
  0.19727801D-02  0.53109340D-03  0.56596568D-03  0.40602813D-03  0.31771318D-03
 -0.27285222D-02  0.24108090D-02 -0.30294082D-02  0.24579384D-02 -0.98703526D-03
  0.15561751D-03 -0.24311043D-03  0.87492923D-04 -0.30067044D-03  0.21678917D-03
  0.42011653D-05
MO    5     MO 0.0        OCC NO =    2.0000000  ORB. ENERGY =    0.000000
 -0.18061589D-01 -0.33663832D-01 -0.57081758D-01 -0.86387171D-01 -0.10776119D+00
 -0.92475130D-01 -0.35413062D-01  0.44545306D-03  0.47794191D-02  0.17617839D-01
  0.51513526D-01  0.62076304D-01 -0.74777487D-01 -0.48276278D-01 -0.29468769D-01
 -0.27535578D-02  0.17250103D+01  0.16726797D+01  0.11283799D+01  0.28400379D-01
  0.27538814D-01  0.18577521D-01 -0.16076720D+00 -0.15589010D+00 -0.10516254D+00
  0.38959795D+00  0.68005863D-02 -0.33177660D-01  0.64811525D-01  0.14822168D-02
 -0.43474276D-02  0.21076412D-02  0.61595486D-04 -0.40281019D-04  0.18746861D-02
 -0.48520762D-02  0.29773901D-02  0.39605555D-03 -0.68984678D-01  0.39115972D-03
  0.13791220D-02 -0.21398017D-02  0.76067969D-03  0.20258299D-03 -0.18790913D-01
 -0.19721064D-03  0.16644811D-03 -0.19030462D-03  0.23856516D-04  0.18998845D-04
 -0.13605920D-02 -0.45251245D-04 -0.10121463D-01  0.52070060D-03 -0.43888167D-03
  0.19406835D-01 -0.19487681D-02 -0.87281471D-03  0.10957552D-01  0.38666632D-03
  0.21894597D-02 -0.20695883D-03 -0.52661869D-03  0.25783868D-04 -0.24455763D-04
  0.83370435D-03 -0.84696083D-04 -0.12027378D-03  0.74615170D-03  0.73444791D-05
  0.19364106D-03 -0.16442677D-05  0.36703033D-03  0.66195431D-03  0.97605125D-03
  0.67464255D-02  0.24652620D-02  0.39242525D-04  0.22349299D-01  0.11796272D-03
 -0.25731297D-02  0.12044351D-01  0.21433713D-02  0.16104372D-03  0.18941129D-02
  0.21330710D-03 -0.28319712D-04 -0.93815975D-03  0.11614254D-02 -0.22326570D-03
  0.10834295D-01  0.86568686D-02  0.89354643D-03 -0.11085113D-03  0.10024409D-03
  0.10607039D-04  0.10808295D-02  0.70018239D-03  0.85357888D-04 -0.10341618D-02
 -0.18651533D-02 -0.27501675D-02  0.42365346D-02  0.21479231D-02  0.44693033D-04
  0.22392502D-01  0.19602875D-02 -0.35692769D-02  0.12200426D-01 -0.11238266D-02
 -0.24331633D-03  0.19087506D-02 -0.10471078D-03 -0.35291968D-04  0.15454247D-04
  0.37699845D-03 -0.39245270D-03 -0.11038547D-01  0.87391465D-02  0.37582307D-03
 -0.33075016D-04  0.33371531D-04 -0.29651524D-06 -0.11034433D-02  0.70978765D-03
 -0.11235088D-04
END DATA
 TOTAL ENERGY =    -76.464203778810 THE VIRIAL(-V/T)=   2.00731580
