 32
GAUSSIAN              5 MOL ORBITALS    126 PRIMITIVES        3 NUCLEI   B3LYP   B3LYP   B3LYP
  O    1    (CENTRE  1)   0.00000000  0.00000000 -0.08633025  CHARGE =  8.0
  H    2    (CENTRE  2)   0.09448631 -1.44255835 -1.09730160  CHARGE =  1.0
  H    3    (CENTRE  3)   0.00000000  1.44255835 -1.09730160  CHARGE =  1.0
CENTRE ASSIGNMENTS    1  1  1  1  1  1  1  1  1  1  1  1  1  1  1  1  1  1  1  1
CENTRE ASSIGNMENTS    1  1  1  1  1  1  1  1  1  1  1  1  1  1  1  1  1  1  1  1
CENTRE ASSIGNMENTS    1  1  1  1  1  1  1  1  1  1  1  1  1  1  1  1  1  1  1  1
CENTRE ASSIGNMENTS    1  1  1  1  1  1  1  1  1  1  1  1  2  2  2  2  2  2  2  2
CENTRE ASSIGNMENTS    2  2  2  2  2  2  2  2  2  2  2  2  2  2  2  2  2  2  2  3
CENTRE ASSIGNMENTS    3  3  3  3  3  3  3  3  3  3  3  3  3  3  3  3  3  3  3  3
CENTRE ASSIGNMENTS    3  3  3  3  3  3
TYPE ASSIGNMENTS      1  1  1  1  1  1  1  1  1  1  1  1  1  1  1  1  2  2  2  3
TYPE ASSIGNMENTS      3  3  4  4  4  2  3  4  2  3  4  2  3  4  5  6  7  8  9 10
TYPE ASSIGNMENTS      5  6  7  8  9 10  5  6  7  8  9 10 11 12 13 17 14 15 18 19
TYPE ASSIGNMENTS     16 20 11 12 13 17 14 15 18 19 16 20  1  1  1  1  1  1  2  3
TYPE ASSIGNMENTS      4  2  3  4  2  3  4  5  6  7  8  9 10  5  6  7  8  9 10  1
TYPE ASSIGNMENTS      1  1  1  1  1  2  3  4  2  3  4  2  3  4  5  6  7  8  9 10
TYPE ASSIGNMENTS      5  6  7  8  9 10
EXPONENTS  0.1533000D+05 0.2299000D+04 0.5224000D+03 0.1473000D+03 0.4755000D+02
EXPONENTS  0.1676000D+02 0.6207000D+01 0.5224000D+03 0.1473000D+03 0.4755000D+02
EXPONENTS  0.1676000D+02 0.6207000D+01 0.6882000D+00 0.1752000D+01 0.2384000D+00
EXPONENTS  0.7376000D-01 0.3446000D+02 0.7749000D+01 0.2280000D+01 0.3446000D+02
EXPONENTS  0.7749000D+01 0.2280000D+01 0.3446000D+02 0.7749000D+01 0.2280000D+01
EXPONENTS  0.7156000D+00 0.7156000D+00 0.7156000D+00 0.2140000D+00 0.2140000D+00
EXPONENTS  0.2140000D+00 0.5974000D-01 0.5974000D-01 0.5974000D-01 0.2314000D+01
EXPONENTS  0.2314000D+01 0.2314000D+01 0.2314000D+01 0.2314000D+01 0.2314000D+01
EXPONENTS  0.6450000D+00 0.6450000D+00 0.6450000D+00 0.6450000D+00 0.6450000D+00
EXPONENTS  0.6450000D+00 0.2140000D+00 0.2140000D+00 0.2140000D+00 0.2140000D+00
EXPONENTS  0.2140000D+00 0.2140000D+00 0.1428000D+01 0.1428000D+01 0.1428000D+01
EXPONENTS  0.1428000D+01 0.1428000D+01 0.1428000D+01 0.1428000D+01 0.1428000D+01
EXPONENTS  0.1428000D+01 0.1428000D+01 0.5000000D+00 0.5000000D+00 0.5000000D+00
EXPONENTS  0.5000000D+00 0.5000000D+00 0.5000000D+00 0.5000000D+00 0.5000000D+00
EXPONENTS  0.5000000D+00 0.5000000D+00 0.3387000D+02 0.5095000D+01 0.1159000D+01
EXPONENTS  0.3258000D+00 0.1027000D+00 0.2526000D-01 0.1407000D+01 0.1407000D+01
EXPONENTS  0.1407000D+01 0.3880000D+00 0.3880000D+00 0.3880000D+00 0.1020000D+00
EXPONENTS  0.1020000D+00 0.1020000D+00 0.1057000D+01 0.1057000D+01 0.1057000D+01
EXPONENTS  0.1057000D+01 0.1057000D+01 0.1057000D+01 0.2470000D+00 0.2470000D+00
EXPONENTS  0.2470000D+00 0.2470000D+00 0.2470000D+00 0.2470000D+00 0.3387000D+02
EXPONENTS  0.5095000D+01 0.1159000D+01 0.3258000D+00 0.1027000D+00 0.2526000D-01
EXPONENTS  0.1407000D+01 0.1407000D+01 0.1407000D+01 0.3880000D+00 0.3880000D+00
EXPONENTS  0.3880000D+00 0.1020000D+00 0.1020000D+00 0.1020000D+00 0.1057000D+01
EXPONENTS  0.1057000D+01 0.1057000D+01 0.1057000D+01 0.1057000D+01 0.1057000D+01
EXPONENTS  0.2470000D+00 0.2470000D+00 0.2470000D+00 0.2470000D+00 0.2470000D+00
EXPONENTS  0.2470000D+00
MO    1     MO 0.0        OCC NO =    2.0000000  ORB. ENERGY =    0.000000
 -0.35823484D-02 -0.66769083D-02 -0.11321636D-01 -0.17134093D-01 -0.21373430D-01
 -0.18341583D-01 -0.70238518D-02  0.34502625D-03  0.37019053D-02  0.13645920D-01
  0.39899869D-01  0.48081283D-01 -0.57919000D-01 -0.36240093D-01  0.34852612D-01
  0.74836588D-02 -0.73566792D-01 -0.71335042D-01 -0.48122198D-01 -0.81205973D-02
 -0.78742478D-02 -0.53119210D-02  0.15162891D+01  0.14702904D+01  0.99184922D+00
 -0.15981718D-01 -0.15487653D-02  0.32871617D+00 -0.19051833D-02 -0.87192989D-04
  0.38499620D-01 -0.40927415D-04 -0.88007317D-06  0.80301591D-03  0.46213855D-01
 -0.84405665D-02 -0.37773289D-01  0.35531759D-02  0.79652396D-02  0.92183560D-03
  0.60127827D-02  0.52892313D-02 -0.11302014D-01  0.48505905D-04  0.16508033D-02
  0.32289080D-04 -0.99207426D-03  0.16243791D-02 -0.63230481D-03 -0.17022170D-03
 -0.31192733D-04 -0.30136474D-04  0.88051886D-03 -0.43629932D-04 -0.93911598D-05
 -0.89524208D-03  0.16922195D-03 -0.18411780D-01 -0.17463145D-02 -0.38332153D-04
  0.18439953D-01 -0.24157465D-02 -0.77719908D-05 -0.28161957D-05  0.69376712D-03
  0.10536486D-03 -0.12131232D-04  0.17878962D-03 -0.82048892D-04  0.20579820D-04
 -0.22600910D-02  0.15734325D-03 -0.31374819D-01 -0.56585778D-01 -0.83435697D-01
 -0.57861699D-01 -0.74411199D-02 -0.81393282D-04  0.11496230D-02 -0.32623350D-01
 -0.26779758D-02  0.34206226D-03 -0.12538025D-01  0.95216364D-03 -0.58983016D-04
 -0.33756189D-04  0.12093889D-02  0.42227280D-02 -0.82631108D-02  0.40403828D-02
  0.11914086D-02  0.28048171D-03 -0.84355818D-02  0.21477528D-04 -0.17438302D-03
  0.15290549D-03 -0.29146598D-04 -0.41583316D-04  0.84679967D-03 -0.31747482D-01
 -0.57257891D-01 -0.84426727D-01 -0.58613146D-01 -0.74986389D-02 -0.80370067D-04
 -0.98506274D-03  0.33013359D-01 -0.29987638D-02 -0.47839530D-03  0.12642729D-01
  0.86236013D-03 -0.61192872D-04  0.26614672D-04  0.12118848D-02  0.43353531D-02
 -0.83685198D-02  0.40331667D-02  0.44683391D-03 -0.27246551D-03  0.87182822D-02
  0.13021034D-04 -0.16878429D-03  0.15576325D-03  0.54490123D-04  0.13395567D-04
 -0.85599261D-03
MO    2     MO 0.0        OCC NO =    2.0000000  ORB. ENERGY =    0.000000
 -0.10070003D-02 -0.18768829D-02 -0.31825188D-02 -0.48164037D-02 -0.60080840D-02
 -0.51558299D-02 -0.19744090D-02 -0.29275907D-03 -0.31411127D-02 -0.11578733D-01
 -0.33855536D-01 -0.40797567D-01  0.49144993D-01  0.30071226D-01  0.17476721D-01
  0.15358592D-02  0.17074099D+01  0.16556132D+01  0.11168669D+01 -0.30983345D+00
 -0.30043422D+00 -0.20267115D+00  0.18800794D+00  0.18230446D+00  0.12298151D+00
  0.38500946D+00 -0.60927201D-01  0.41061309D-01  0.62282389D-01 -0.37400591D-02
  0.66033542D-02  0.19590774D-02  0.22779321D-04  0.16671113D-03  0.22460935D-02
  0.42527847D-02 -0.64988782D-02 -0.16149956D-02 -0.71120071D-01  0.31127098D-01
  0.30457352D-03  0.12378831D-02 -0.15424566D-02 -0.24141260D-03 -0.17116059D-01
  0.27906892D-02  0.35617788D-05  0.80896012D-04 -0.84457791D-04  0.14599685D-04
 -0.10117992D-02 -0.56894653D-03 -0.10310949D-01 -0.10668980D-02  0.78534651D-03
  0.23830267D-01  0.71116204D-03 -0.23637438D-02  0.71025788D-02  0.24895321D-02
  0.77042957D-05 -0.85441446D-04 -0.19274599D-03 -0.38191413D-04 -0.18428873D-04
  0.15228288D-03  0.90314531D-04 -0.83616865D-04  0.42595510D-03  0.24259708D-04
  0.13890349D-03  0.15096396D-04  0.11354554D-01  0.20478405D-01  0.30195397D-01
  0.17176540D-01  0.10065154D-02 -0.44624502D-04  0.24332146D-01  0.93565595D-02
  0.11665321D-01  0.13468953D-01  0.21513547D-02  0.40573276D-02  0.20787032D-02
 -0.60029685D-04  0.22001399D-03 -0.29258684D-02  0.15557926D-02  0.13700758D-02
  0.12054024D-01  0.81279999D-02  0.76630005D-02 -0.37104780D-04 -0.49191219D-04
  0.86295999D-04  0.13779727D-02  0.80605015D-03  0.21527924D-03 -0.80342629D-02
 -0.14490124D-01 -0.21365679D-01 -0.19801176D-01 -0.32967721D-02 -0.16971035D-05
  0.25220156D-01  0.56148345D-02 -0.29732577D-02  0.13729280D-01  0.35424944D-02
 -0.15771675D-02  0.20815259D-02  0.13112616D-03  0.12145151D-03  0.18888484D-02
 -0.22134046D-02  0.32455623D-03 -0.12660454D-01  0.87369776D-02  0.46928927D-02
  0.19882444D-04 -0.51758600D-04  0.31876156D-04 -0.13869452D-02  0.81824187D-03
  0.61654660D-04
MO    3     MO 0.0        OCC NO =    2.0000000  ORB. ENERGY =    0.000000
  0.74618538D-01  0.13907669D+00  0.23582407D+00  0.35689465D+00  0.44519794D+00
  0.38204607D+00  0.14630335D+00  0.37019286D-03  0.39719265D-02  0.14641269D-01
  0.42810211D-01  0.51588386D-01 -0.62143678D-01 -0.29405806D-01 -0.20758722D-01
 -0.17448284D-02  0.45480517D+00  0.44100802D+00  0.29750141D+00  0.13917102D+01
  0.13494907D+01  0.91035845D+00 -0.91639362D-01 -0.88859356D-01 -0.59943996D-01
  0.10365062D+00  0.28020433D+00 -0.19104739D-01  0.17583560D-01  0.22348864D-01
 -0.32134894D-02  0.56904661D-03  0.17547648D-03 -0.56118144D-04  0.22316177D-02
 -0.47179341D-02  0.24863163D-02  0.63708716D-02 -0.16483375D-01 -0.12647950D+00
  0.90756521D-03 -0.14612361D-02  0.55367094D-03  0.73875936D-03 -0.45475588D-02
 -0.12765826D-01  0.63370956D-04 -0.86705124D-04  0.23334168D-04 -0.85709903D-04
 -0.36410663D-03  0.19973440D-02 -0.25815708D-02  0.71320171D-02 -0.32922979D-03
  0.52683675D-02 -0.12982685D-01 -0.31929351D-03  0.24763448D-02 -0.84133665D-02
  0.13069829D-02 -0.47335828D-03 -0.39391403D-04  0.16303864D-03  0.32500128D-04
 -0.54208005D-07 -0.45787292D-03 -0.40302357D-04  0.11822842D-03 -0.31242999D-04
 -0.57198027D-04 -0.32291365D-04 -0.38936152D-01 -0.70222953D-01 -0.10354370D+00
 -0.68905734D-01 -0.68593193D-02  0.10756149D-03  0.96881369D-02 -0.27697817D-01
 -0.31196603D-01  0.47911506D-02 -0.83661900D-02 -0.11238498D-01  0.61016942D-03
  0.24368274D-03 -0.24134581D-03  0.76376471D-02 -0.53110871D-02 -0.23265600D-02
  0.56516340D-02  0.42654447D-02 -0.23620343D-01 -0.11744521D-03  0.23339557D-03
 -0.11595036D-03  0.39977407D-03  0.25327380D-03 -0.41414478D-03  0.34061795D-01
  0.61431850D-01  0.90581228D-01  0.70234810D-01  0.93459846D-02 -0.54222413D-04
  0.69485194D-02 -0.22001925D-01  0.23944631D-01  0.38470442D-02 -0.94243635D-02
  0.99708593D-02  0.60099136D-03  0.35425355D-04  0.12953820D-03 -0.71427489D-02
  0.55229720D-02  0.16197769D-02 -0.35626696D-02  0.23981994D-02 -0.20599499D-01
  0.32957316D-04 -0.12137858D-03  0.88421260D-04 -0.37442319D-03  0.24724971D-03
 -0.41259242D-03
MO    4     MO 0.0        OCC NO =    2.0000000  ORB. ENERGY =    0.000000
 -0.27014866D+00 -0.50351268D+00 -0.85377650D+00 -0.12921000D+01 -0.16117928D+01
 -0.13831581D+01 -0.52967605D+00 -0.15310260D-02 -0.16426905D-01 -0.60552664D-01
 -0.17705244D+00 -0.21335680D+00  0.25701087D+00  0.12622165D+00  0.86918012D-01
  0.74369167D-02 -0.18029830D+00 -0.17482871D+00 -0.11793841D+00  0.39202919D+00
  0.38013644D+00  0.25643780D+00  0.50272163D+00  0.48747087D+00  0.32884497D+00
 -0.40059737D-01  0.78626671D-01  0.10703423D+00 -0.62975624D-02  0.60679267D-02
  0.17704859D-01 -0.18407276D-03  0.38976591D-04  0.35862733D-03 -0.57352868D-02
  0.20546230D-01 -0.14810943D-01 -0.27228035D-04  0.80195717D-02 -0.36139852D-01
 -0.27562727D-02  0.61884548D-02 -0.34321821D-02 -0.41575278D-03  0.16305427D-02
 -0.35535022D-02 -0.19085773D-03  0.36222092D-03 -0.17136318D-03 -0.63050085D-04
  0.66479710D-04  0.58589165D-03  0.10481843D-02  0.19318736D-02  0.18286978D-02
 -0.22105015D-02 -0.33077093D-02 -0.13151771D-02 -0.93405137D-03 -0.24879115D-02
 -0.41709164D-02  0.88400991D-04  0.17993770D-04  0.45232480D-04 -0.12858588D-03
 -0.40764775D-04 -0.12187706D-03  0.50405672D-04 -0.13216536D-04 -0.13820380D-04
  0.33535196D-03 -0.30988290D-04 -0.10508383D-02 -0.18952302D-02 -0.27945158D-02
 -0.24086833D-01 -0.77625905D-02 -0.90118418D-04 -0.26603554D-02  0.39974851D-02
  0.86516920D-02 -0.10030946D-02 -0.51939867D-02  0.31452202D-03 -0.17648998D-03
 -0.42456135D-03  0.30580936D-03  0.76692397D-03 -0.22877159D-02  0.15207919D-02
 -0.88442118D-03 -0.82014429D-03  0.26307339D-03  0.12932881D-03 -0.20509661D-03
  0.75767802D-04 -0.92122458D-04 -0.62389163D-04 -0.64417055D-04  0.20075750D-01
  0.36207442D-01  0.53387852D-01  0.16153194D-01 -0.30676534D-02 -0.13629257D-03
 -0.26708474D-02 -0.18741106D-01  0.24665135D-01 -0.14598560D-02 -0.12690807D-03
  0.64573073D-02 -0.21152403D-03  0.47829193D-03  0.41455408D-03 -0.36865015D-02
  0.10177153D-02  0.26687863D-02  0.13823258D-02 -0.89889658D-03 -0.13218558D-01
  0.15681384D-03 -0.29102225D-03  0.13420841D-03  0.15512312D-03 -0.61129716D-04
 -0.18343043D-03
MO    5     MO 0.0        OCC NO =    2.0000000  ORB. ENERGY =    0.000000
  0.42506520D+00  0.79225164D+00  0.13433740D+01  0.20330537D+01  0.25360742D+01
  0.21763290D+01  0.83341839D+00 -0.55231118D-03 -0.59259365D-02 -0.21844118D-01
 -0.63870919D-01 -0.76967563D-01  0.92715586D-01  0.10683606D+00  0.39535122D-01
  0.37928369D-02 -0.18781455D+00 -0.18211693D+00 -0.12285501D+00  0.40543691D-02
  0.39313742D-02  0.26520818D-02  0.28058520D+00  0.27207326D+00  0.18353901D+00
 -0.42214036D-01  0.69012126D-03  0.59994736D-01 -0.68013931D-02 -0.50845481D-04
  0.87955226D-02 -0.20921914D-03 -0.53117644D-05  0.17245159D-03 -0.31141581D-02
  0.11281991D-01 -0.81678333D-02 -0.90605729D-03  0.77518849D-02 -0.72898585D-03
 -0.86611163D-03  0.27520457D-02 -0.18859341D-02 -0.23021490D-03  0.18561267D-02
 -0.38505249D-04 -0.13177150D-03  0.21909328D-03 -0.87321785D-04 -0.23011537D-04
  0.10157653D-03  0.15665950D-04  0.10474097D-02 -0.22345500D-04  0.15379787D-02
 -0.21830519D-02  0.14342430D-03  0.25020266D-03 -0.95917716D-03 -0.76387798D-04
 -0.48641388D-02  0.33265308D-03  0.31602134D-04 -0.75917971D-06 -0.20742965D-03
 -0.55960608D-04  0.56012970D-05 -0.25339018D-03 -0.38845795D-04 -0.33237579D-05
  0.87567915D-03 -0.75977328D-04  0.17177524D-02  0.30980371D-02  0.45680539D-02
 -0.71720629D-02 -0.31193560D-02 -0.54998654D-04 -0.28761248D-02  0.11206174D-02
  0.56178792D-02 -0.13289677D-02 -0.30888796D-02  0.54240274D-03 -0.21145337D-03
 -0.26897157D-03  0.14378981D-03  0.12253386D-02 -0.23140387D-02  0.10887001D-02
 -0.98745207D-03 -0.82887056D-03 -0.17232970D-02  0.91031924D-04 -0.12808939D-03
  0.37057471D-04 -0.12696461D-03 -0.78871208D-04 -0.12989056D-04  0.22651040D-02
  0.40852084D-02  0.60236374D-02 -0.61945245D-02 -0.30113091D-02 -0.56516084D-04
 -0.28126293D-02 -0.16525700D-02  0.60245173D-02 -0.15355699D-02  0.28853998D-02
  0.68257851D-03 -0.22927135D-03  0.25812832D-03  0.14562271D-03  0.10458830D-02
 -0.21636364D-02  0.11177534D-02  0.14466734D-02 -0.94632947D-03  0.13729051D-02
  0.82857402D-04 -0.12160525D-03  0.38747846D-04  0.15537381D-03 -0.79995794D-04
  0.29548532D-05
END DATA
 TOTAL ENERGY =    -76.464232549335 THE VIRIAL(-V/T)=   2.00453858
