 32
GAUSSIAN              5 MOL ORBITALS    126 PRIMITIVES        3 NUCLEI   B3LYP   B3LYP   B3LYP
  O    1    (CENTRE  1)   0.00000000  0.00000000  0.10264236  CHARGE =  8.0
  H    2    (CENTRE  2)  -0.09448631 -1.44255835 -1.09730160  CHARGE =  1.0
  H    3    (CENTRE  3)   0.00000000  1.44255835 -1.09730160  CHARGE =  1.0
CENTRE ASSIGNMENTS    1  1  1  1  1  1  1  1  1  1  1  1  1  1  1  1  1  1  1  1
CENTRE ASSIGNMENTS    1  1  1  1  1  1  1  1  1  1  1  1  1  1  1  1  1  1  1  1
CENTRE ASSIGNMENTS    1  1  1  1  1  1  1  1  1  1  1  1  1  1  1  1  1  1  1  1
CENTRE ASSIGNMENTS    1  1  1  1  1  1  1  1  1  1  1  1  2  2  2  2  2  2  2  2
CENTRE ASSIGNMENTS    2  2  2  2  2  2  2  2  2  2  2  2  2  2  2  2  2  2  2  3
CENTRE ASSIGNMENTS    3  3  3  3  3  3  3  3  3  3  3  3  3  3  3  3  3  3  3  3
CENTRE ASSIGNMENTS    3  3  3  3  3  3
TYPE ASSIGNMENTS      1  1  1  1  1  1  1  1  1  1  1  1  1  1  1  1  2  2  2  3
TYPE ASSIGNMENTS      3  3  4  4  4  2  3  4  2  3  4  2  3  4  5  6  7  8  9 10
TYPE ASSIGNMENTS      5  6  7  8  9 10  5  6  7  8  9 10 11 12 13 17 14 15 18 19
TYPE ASSIGNMENTS     16 20 11 12 13 17 14 15 18 19 16 20  1  1  1  1  1  1  2  3
TYPE ASSIGNMENTS      4  2  3  4  2  3  4  5  6  7  8  9 10  5  6  7  8  9 10  1
TYPE ASSIGNMENTS      1  1  1  1  1  2  3  4  2  3  4  2  3  4  5  6  7  8  9 10
TYPE ASSIGNMENTS      5  6  7  8  9 10
EXPONENTS  0.1533000D+05 0.2299000D+04 0.5224000D+03 0.1473000D+03 0.4755000D+02
EXPONENTS  0.1676000D+02 0.6207000D+01 0.5224000D+03 0.1473000D+03 0.4755000D+02
EXPONENTS  0.1676000D+02 0.6207000D+01 0.6882000D+00 0.1752000D+01 0.2384000D+00
EXPONENTS  0.7376000D-01 0.3446000D+02 0.7749000D+01 0.2280000D+01 0.3446000D+02
EXPONENTS  0.7749000D+01 0.2280000D+01 0.3446000D+02 0.7749000D+01 0.2280000D+01
EXPONENTS  0.7156000D+00 0.7156000D+00 0.7156000D+00 0.2140000D+00 0.2140000D+00
EXPONENTS  0.2140000D+00 0.5974000D-01 0.5974000D-01 0.5974000D-01 0.2314000D+01
EXPONENTS  0.2314000D+01 0.2314000D+01 0.2314000D+01 0.2314000D+01 0.2314000D+01
EXPONENTS  0.6450000D+00 0.6450000D+00 0.6450000D+00 0.6450000D+00 0.6450000D+00
EXPONENTS  0.6450000D+00 0.2140000D+00 0.2140000D+00 0.2140000D+00 0.2140000D+00
EXPONENTS  0.2140000D+00 0.2140000D+00 0.1428000D+01 0.1428000D+01 0.1428000D+01
EXPONENTS  0.1428000D+01 0.1428000D+01 0.1428000D+01 0.1428000D+01 0.1428000D+01
EXPONENTS  0.1428000D+01 0.1428000D+01 0.5000000D+00 0.5000000D+00 0.5000000D+00
EXPONENTS  0.5000000D+00 0.5000000D+00 0.5000000D+00 0.5000000D+00 0.5000000D+00
EXPONENTS  0.5000000D+00 0.5000000D+00 0.3387000D+02 0.5095000D+01 0.1159000D+01
EXPONENTS  0.3258000D+00 0.1027000D+00 0.2526000D-01 0.1407000D+01 0.1407000D+01
EXPONENTS  0.1407000D+01 0.3880000D+00 0.3880000D+00 0.3880000D+00 0.1020000D+00
EXPONENTS  0.1020000D+00 0.1020000D+00 0.1057000D+01 0.1057000D+01 0.1057000D+01
EXPONENTS  0.1057000D+01 0.1057000D+01 0.1057000D+01 0.2470000D+00 0.2470000D+00
EXPONENTS  0.2470000D+00 0.2470000D+00 0.2470000D+00 0.2470000D+00 0.3387000D+02
EXPONENTS  0.5095000D+01 0.1159000D+01 0.3258000D+00 0.1027000D+00 0.2526000D-01
EXPONENTS  0.1407000D+01 0.1407000D+01 0.1407000D+01 0.3880000D+00 0.3880000D+00
EXPONENTS  0.3880000D+00 0.1020000D+00 0.1020000D+00 0.1020000D+00 0.1057000D+01
EXPONENTS  0.1057000D+01 0.1057000D+01 0.1057000D+01 0.1057000D+01 0.1057000D+01
EXPONENTS  0.2470000D+00 0.2470000D+00 0.2470000D+00 0.2470000D+00 0.2470000D+00
EXPONENTS  0.2470000D+00
MO    1     MO 0.0        OCC NO =    2.0000000  ORB. ENERGY =    0.000000
 -0.90541507D-03 -0.16875448D-02 -0.28614694D-02 -0.43305296D-02 -0.54019944D-02
 -0.46357148D-02 -0.17752325D-02  0.16196437D-03  0.17377714D-02  0.64057525D-02
  0.18730044D-01  0.22570614D-01 -0.27188697D-01 -0.17221507D-01 -0.24314554D-01
 -0.35231170D-02  0.16591845D+01  0.16088509D+01  0.10853213D+01 -0.20971941D+00
 -0.20335728D+00 -0.13718362D+00 -0.57670806D+00 -0.55921283D+00 -0.37724167D+00
  0.37511251D+00 -0.45259615D-01 -0.12570680D+00  0.62700177D-01 -0.56148954D-02
 -0.16363620D-01  0.20535141D-02 -0.10913109D-03 -0.33436606D-03 -0.14841006D-01
 -0.17349891D-02  0.16575996D-01  0.14926282D-02 -0.64622645D-01  0.16694430D-01
 -0.22733176D-02 -0.24711163D-02  0.47444339D-02  0.67884142D-04 -0.17858712D-01
  0.29272523D-02  0.15381694D-03 -0.40850038D-03  0.25468344D-03 -0.40982019D-04
 -0.13392130D-02  0.49276233D-04 -0.95992924D-02 -0.12696416D-02 -0.13343026D-02
  0.18784974D-01  0.39578452D-02  0.77519107D-02  0.10012903D-01 -0.14892049D-03
 -0.37490030D-02 -0.90848386D-03 -0.50537578D-03 -0.36965287D-04 -0.25200244D-03
  0.83335397D-03  0.24018352D-03  0.28595526D-03  0.68277337D-03 -0.12928766D-03
  0.47005206D-03  0.85024944D-05  0.11950035D-01  0.21552380D-01  0.31778972D-01
  0.24939909D-01  0.44643047D-02  0.34019148D-04  0.22151908D-01  0.77672898D-02
  0.11398906D-02  0.12076103D-01  0.43666053D-02  0.75452182D-03  0.18549282D-02
  0.61215318D-04 -0.33018592D-03 -0.11193385D-02  0.19512469D-02 -0.83190841D-03
  0.11155395D-01  0.87289250D-02  0.36560530D-02 -0.33238294D-04  0.63100872D-04
 -0.29862577D-04  0.10845222D-02  0.69994111D-03 -0.44123611D-05  0.42323176D-02
  0.76331590D-02  0.11255089D-01  0.11070558D-01  0.26851781D-02  0.63944874D-04
  0.21554620D-01 -0.58282932D-02 -0.43263144D-02  0.11749680D-01 -0.38923805D-02
 -0.14925942D-02  0.18466250D-02 -0.26244533D-03 -0.36935362D-03 -0.51912693D-03
  0.22934753D-02 -0.17743484D-02 -0.10632404D-01  0.84524626D-02 -0.35531018D-03
 -0.67752884D-04  0.15834969D-03 -0.90596801D-04 -0.10603573D-02  0.70129000D-03
  0.11672217D-03
MO    2     MO 0.0        OCC NO =    2.0000000  ORB. ENERGY =    0.000000
 -0.55206628D-01 -0.10289608D+00 -0.17447476D+00 -0.26404899D+00 -0.32938031D+00
 -0.28265731D+00 -0.10824273D+00 -0.24343401D-03 -0.26118872D-02 -0.96279081D-02
 -0.28151439D-01 -0.33923852D-01  0.40864875D-01  0.19665168D-01  0.56124224D-01
  0.89576212D-02  0.67182104D+00  0.65144042D+00  0.43945786D+00  0.46104370D+00
  0.44705731D+00  0.30158222D+00  0.13670902D+01  0.13256176D+01  0.89425381D+00
  0.15109349D+00  0.97553370D-01  0.29679019D+00  0.24452977D-01  0.10257131D-01
  0.36501520D-01  0.76829327D-03  0.10434742D-03  0.65497257D-03  0.34987210D-01
  0.23340506D-02 -0.37321260D-01 -0.39070551D-02 -0.31312149D-01 -0.44306340D-01
  0.46546016D-02  0.61984304D-02 -0.10853032D-01 -0.18951197D-03 -0.80607097D-02
 -0.70085520D-02 -0.57644294D-03  0.11136426D-02 -0.53719963D-03  0.10884711D-03
 -0.47803127D-03  0.50334377D-05 -0.43598897D-02  0.17747125D-02  0.20694778D-02
  0.77553203D-02 -0.45940066D-02 -0.15771435D-01  0.53243489D-02 -0.73013083D-03
  0.95630012D-02  0.20418202D-02 -0.21647128D-03  0.20940562D-04  0.63310065D-03
  0.26651672D-03 -0.37859464D-03 -0.42351679D-03  0.38289713D-03  0.31577295D-03
 -0.14757852D-02 -0.46685348D-05 -0.36179139D-01 -0.65250566D-01 -0.96211922D-01
 -0.72007229D-01 -0.12104687D-01 -0.76145337D-04  0.65999850D-02 -0.26145049D-01
 -0.87690320D-02  0.36437353D-02 -0.13427014D-01 -0.42229816D-02  0.68337750D-03
 -0.28673186D-03  0.67783122D-03  0.55673079D-02 -0.65132797D-02  0.94597175D-03
  0.25398660D-02  0.22611723D-02 -0.13352645D-01  0.28373939D-03 -0.26398334D-03
 -0.19756045D-04  0.34074863D-03  0.21899851D-03 -0.20818619D-03 -0.12186533D-01
 -0.21978914D-01 -0.32407896D-01 -0.28846419D-01 -0.65812669D-02 -0.16920102D-03
  0.86438316D-02  0.15153862D-01  0.82177938D-02  0.46732230D-02  0.92484030D-02
  0.27680828D-02  0.71522072D-03  0.49423267D-03  0.79970795D-03  0.12601970D-02
 -0.51316469D-02  0.38714499D-02 -0.42301780D-02  0.33002211D-02  0.11490473D-02
  0.14837408D-03 -0.31767157D-03  0.16929750D-03 -0.42783150D-03  0.24146482D-03
 -0.29725003D-03
MO    3     MO 0.0        OCC NO =    2.0000000  ORB. ENERGY =    0.000000
 -0.16002783D+00 -0.29826556D+00 -0.50575117D+00 -0.76540061D+00 -0.95477694D+00
 -0.81934066D+00 -0.31376394D+00 -0.68318917D-04 -0.73301714D-03 -0.27020392D-02
 -0.79006041D-02 -0.95206121D-02  0.11468586D-01 -0.12365522D-01 -0.15085114D-01
 -0.30898493D-02 -0.22014491D-01 -0.21346651D-01 -0.14400325D-01  0.12879520D+01
  0.12488802D+01  0.84248718D+00 -0.54733911D+00 -0.53073482D+00 -0.35803057D+00
 -0.54105869D-02  0.27310175D+00 -0.11988088D+00 -0.12122145D-02  0.29382810D-01
 -0.14482094D-01 -0.51369912D-04  0.34486101D-03 -0.26354336D-03 -0.15424106D-01
  0.18922004D-03  0.15234886D-01 -0.37492710D-02  0.14907045D-03 -0.12109212D+00
 -0.25765169D-02 -0.19243567D-02  0.45008737D-02 -0.71617250D-03  0.39249672D-03
 -0.19273895D-01  0.19831426D-03 -0.42219354D-03  0.22387929D-03 -0.40191646D-04
  0.36408063D-04  0.89877861D-05  0.38167798D-04  0.53583559D-02 -0.80031086D-03
  0.83022812D-03 -0.14628276D-01  0.67231745D-02 -0.94473151D-03 -0.14467918D-02
 -0.43222420D-02  0.31404753D-03 -0.10242133D-04  0.86233624D-04 -0.23467427D-03
  0.74769812D-04 -0.10974365D-02  0.32069197D-03 -0.44043414D-04  0.83873564D-03
  0.38333083D-03  0.15663202D-03 -0.20905412D-01 -0.37703771D-01 -0.55594188D-01
 -0.36661217D-01 -0.38961456D-02  0.16462843D-03 -0.15292680D-02 -0.42814335D-02
 -0.21262883D-01 -0.66529517D-03 -0.54170865D-03 -0.88179256D-02 -0.49641832D-04
  0.47175593D-03 -0.45743671D-03  0.37008200D-02  0.10558638D-02 -0.47566838D-02
 -0.91962363D-03 -0.12772966D-02 -0.11972825D-01  0.61442493D-04  0.21916984D-03
 -0.28061233D-03 -0.43090487D-04 -0.66480048D-04 -0.66483714D-03  0.43171889D-01
  0.77862281D-01  0.11480789D+00  0.78744361D-01  0.10800465D-01 -0.84393317D-04
 -0.38391376D-03 -0.23929459D-01  0.24211803D-01 -0.23707289D-03 -0.99143541D-02
  0.98748607D-02 -0.45783567D-04  0.21159075D-03 -0.13883646D-03 -0.72148251D-02
  0.41552754D-02  0.30595497D-02  0.21922599D-03 -0.70855521D-04 -0.20272492D-01
 -0.22046322D-03  0.23468207D-05  0.21811640D-03  0.17575708D-04 -0.33441416D-05
 -0.61830462D-03
MO    4     MO 0.0        OCC NO =    2.0000000  ORB. ENERGY =    0.000000
  0.47978613D+00  0.89424245D+00  0.15163137D+01  0.22947796D+01  0.28625567D+01
  0.24564995D+01  0.94070881D+00  0.46805081D-03  0.50218780D-02  0.18511588D-01
  0.54126798D-01  0.65225423D-01 -0.78570934D-01  0.86231023D-02 -0.23567335D-01
 -0.18402774D-02  0.66284394D-01  0.64273566D-01  0.43358568D-01  0.48249501D+00
  0.46785786D+00  0.31561415D+00 -0.94901309D-01 -0.92022347D-01 -0.62077732D-01
  0.14903224D-01  0.10231924D+00 -0.17718589D-01  0.22806733D-02  0.10992352D-01
 -0.30205924D-02  0.68376323D-04  0.12739267D-03 -0.57391504D-04  0.66373647D-03
 -0.28258147D-02  0.21620783D-02 -0.20234661D-02 -0.35483092D-02 -0.45474931D-01
  0.14173999D-02 -0.18153934D-02  0.39799353D-03 -0.49932992D-03 -0.91308704D-03
 -0.72512829D-02  0.11260465D-03 -0.12944817D-03  0.16843519D-04 -0.16028546D-04
 -0.50800274D-04  0.97442891D-06 -0.48318167D-03  0.19894587D-02 -0.36557522D-03
  0.11984188D-02 -0.54203590D-02  0.44568069D-03  0.25112624D-03 -0.54801697D-03
  0.65104495D-03  0.40615928D-03 -0.43679091D-04  0.30490900D-04 -0.97546610D-04
  0.81600868D-04 -0.40769122D-03 -0.33751960D-03  0.49436406D-04  0.31621852D-03
  0.63015942D-03  0.12184293D-03 -0.14838150D-01 -0.26761215D-01 -0.39459396D-01
 -0.21401043D-01 -0.15186982D-02  0.78164331D-04 -0.63035402D-04 -0.84203823D-02
 -0.12416185D-01  0.15831460D-03 -0.17468030D-02 -0.42356434D-02  0.62349262D-04
  0.21561834D-03 -0.11744258D-03  0.29403074D-02 -0.96774068D-03 -0.19725667D-02
 -0.26427458D-03 -0.40735868D-03 -0.89882402D-02  0.36894247D-04  0.66469361D-04
 -0.10336361D-03  0.26452880D-04  0.30015494D-05 -0.25601491D-03  0.92733716D-02
  0.16724908D-01  0.24660866D-01  0.21997594D-01  0.40048377D-02 -0.15956988D-04
  0.81493076D-03 -0.22067435D-02  0.46633904D-02  0.42098740D-03 -0.21953196D-02
  0.27832860D-02  0.61353850D-04  0.38659697D-04  0.15397825D-05 -0.11670113D-02
  0.20375952D-03  0.96325175D-03 -0.37927001D-03  0.34111421D-03 -0.31037073D-02
 -0.72077402D-04 -0.12938235D-04  0.85015637D-04 -0.39802406D-04  0.27326219D-04
 -0.22883102D-03
MO    5     MO 0.0        OCC NO =    2.0000000  ORB. ENERGY =    0.000000
  0.21209954D-01  0.39531867D-01  0.67031836D-01  0.10144556D+00  0.12654534D+00
  0.10859472D+00  0.41586010D-01 -0.16651314D-02 -0.17865768D-01 -0.65856584D-01
 -0.19256079D+00 -0.23204511D+00  0.27952293D+00  0.17432746D+00  0.84408284D-01
  0.55563156D-02  0.94933842D-01  0.92053893D-01  0.62099013D-01 -0.53578028D-02
 -0.51952664D-02 -0.35046960D-02  0.50720193D-01  0.49181526D-01  0.33177567D-01
  0.21232674D-01 -0.12120974D-02  0.59801316D-02  0.36670430D-02 -0.18873038D-03
  0.43299558D-02  0.11660193D-03 -0.44918341D-05  0.66111352D-04 -0.19087513D-01
  0.17985844D-01  0.11016692D-02  0.24389486D-02 -0.21269623D-02  0.20633517D-03
 -0.57880464D-02  0.48535499D-02  0.93449652D-03  0.69963323D-03 -0.48686730D-03
  0.78694049D-04 -0.11891259D-03  0.81458116D-04  0.37454473D-04  0.13044217D-04
 -0.61802768D-04  0.69140158D-05 -0.32875159D-03 -0.36871077D-04  0.20478061D-02
  0.59071642D-03  0.10933275D-03  0.55659658D-02  0.39553835D-03  0.12804813D-05
 -0.11709384D-01 -0.11363591D-02 -0.14828841D-04 -0.79201437D-06 -0.16950622D-03
  0.51475896D-04  0.12215109D-04  0.34604075D-03 -0.69893718D-05 -0.98390663D-05
  0.16247792D-03 -0.12462068D-04  0.16589428D-01  0.29919717D-01  0.44116605D-01
  0.94918866D-02 -0.34653552D-02 -0.93832816D-04  0.23799484D-02  0.16682827D-01
  0.15968950D-01  0.77055009D-03  0.51727174D-03  0.24734695D-02  0.87946594D-04
 -0.39989657D-03 -0.46887528D-04 -0.16622946D-02  0.60545404D-03  0.10568406D-02
  0.96134835D-03  0.86824422D-03  0.54861657D-02  0.51788110D-04 -0.89700478D-04
  0.37912368D-04  0.47981726D-04  0.35601493D-04 -0.56550122D-04  0.16518865D-01
  0.29792453D-01  0.43928954D-01  0.93135179D-02 -0.34984446D-02 -0.93581797D-04
  0.12864489D-02 -0.16801182D-01  0.15958733D-01  0.73612800D-03 -0.55237556D-03
  0.24409322D-02  0.11401079D-03  0.39231882D-03 -0.48600137D-04 -0.17069142D-02
  0.65887671D-03  0.10480375D-02 -0.65780062D-03  0.50847448D-03 -0.55134682D-02
  0.49645417D-04 -0.85357857D-04  0.35712440D-04 -0.65981325D-04  0.39421595D-04
  0.59839751D-04
END DATA
 TOTAL ENERGY =    -76.464203778810 THE VIRIAL(-V/T)=   2.00731580
