 33
GAUSSIAN              5 MOL ORBITALS    126 PRIMITIVES        3 NUCLEI   B3LYP   B3LYP   B3LYP
  O    1    (CENTRE  1)   0.00000000  0.00000000  0.00815606  CHARGE =  8.0
  H    2    (CENTRE  2)   0.09448631 -1.44255835 -1.09730160  CHARGE =  1.0
  H    3    (CENTRE  3)   0.00000000  1.44255835 -1.09730160  CHARGE =  1.0
CENTRE ASSIGNMENTS    1  1  1  1  1  1  1  1  1  1  1  1  1  1  1  1  1  1  1  1
CENTRE ASSIGNMENTS    1  1  1  1  1  1  1  1  1  1  1  1  1  1  1  1  1  1  1  1
CENTRE ASSIGNMENTS    1  1  1  1  1  1  1  1  1  1  1  1  1  1  1  1  1  1  1  1
CENTRE ASSIGNMENTS    1  1  1  1  1  1  1  1  1  1  1  1  2  2  2  2  2  2  2  2
CENTRE ASSIGNMENTS    2  2  2  2  2  2  2  2  2  2  2  2  2  2  2  2  2  2  2  3
CENTRE ASSIGNMENTS    3  3  3  3  3  3  3  3  3  3  3  3  3  3  3  3  3  3  3  3
CENTRE ASSIGNMENTS    3  3  3  3  3  3
TYPE ASSIGNMENTS      1  1  1  1  1  1  1  1  1  1  1  1  1  1  1  1  2  2  2  3
TYPE ASSIGNMENTS      3  3  4  4  4  2  3  4  2  3  4  2  3  4  5  6  7  8  9 10
TYPE ASSIGNMENTS      5  6  7  8  9 10  5  6  7  8  9 10 11 12 13 17 14 15 18 19
TYPE ASSIGNMENTS     16 20 11 12 13 17 14 15 18 19 16 20  1  1  1  1  1  1  2  3
TYPE ASSIGNMENTS      4  2  3  4  2  3  4  5  6  7  8  9 10  5  6  7  8  9 10  1
TYPE ASSIGNMENTS      1  1  1  1  1  2  3  4  2  3  4  2  3  4  5  6  7  8  9 10
TYPE ASSIGNMENTS      5  6  7  8  9 10
EXPONENTS  0.1533000D+05 0.2299000D+04 0.5224000D+03 0.1473000D+03 0.4755000D+02
EXPONENTS  0.1676000D+02 0.6207000D+01 0.5224000D+03 0.1473000D+03 0.4755000D+02
EXPONENTS  0.1676000D+02 0.6207000D+01 0.6882000D+00 0.1752000D+01 0.2384000D+00
EXPONENTS  0.7376000D-01 0.3446000D+02 0.7749000D+01 0.2280000D+01 0.3446000D+02
EXPONENTS  0.7749000D+01 0.2280000D+01 0.3446000D+02 0.7749000D+01 0.2280000D+01
EXPONENTS  0.7156000D+00 0.7156000D+00 0.7156000D+00 0.2140000D+00 0.2140000D+00
EXPONENTS  0.2140000D+00 0.5974000D-01 0.5974000D-01 0.5974000D-01 0.2314000D+01
EXPONENTS  0.2314000D+01 0.2314000D+01 0.2314000D+01 0.2314000D+01 0.2314000D+01
EXPONENTS  0.6450000D+00 0.6450000D+00 0.6450000D+00 0.6450000D+00 0.6450000D+00
EXPONENTS  0.6450000D+00 0.2140000D+00 0.2140000D+00 0.2140000D+00 0.2140000D+00
EXPONENTS  0.2140000D+00 0.2140000D+00 0.1428000D+01 0.1428000D+01 0.1428000D+01
EXPONENTS  0.1428000D+01 0.1428000D+01 0.1428000D+01 0.1428000D+01 0.1428000D+01
EXPONENTS  0.1428000D+01 0.1428000D+01 0.5000000D+00 0.5000000D+00 0.5000000D+00
EXPONENTS  0.5000000D+00 0.5000000D+00 0.5000000D+00 0.5000000D+00 0.5000000D+00
EXPONENTS  0.5000000D+00 0.5000000D+00 0.3387000D+02 0.5095000D+01 0.1159000D+01
EXPONENTS  0.3258000D+00 0.1027000D+00 0.2526000D-01 0.1407000D+01 0.1407000D+01
EXPONENTS  0.1407000D+01 0.3880000D+00 0.3880000D+00 0.3880000D+00 0.1020000D+00
EXPONENTS  0.1020000D+00 0.1020000D+00 0.1057000D+01 0.1057000D+01 0.1057000D+01
EXPONENTS  0.1057000D+01 0.1057000D+01 0.1057000D+01 0.2470000D+00 0.2470000D+00
EXPONENTS  0.2470000D+00 0.2470000D+00 0.2470000D+00 0.2470000D+00 0.3387000D+02
EXPONENTS  0.5095000D+01 0.1159000D+01 0.3258000D+00 0.1027000D+00 0.2526000D-01
EXPONENTS  0.1407000D+01 0.1407000D+01 0.1407000D+01 0.3880000D+00 0.3880000D+00
EXPONENTS  0.3880000D+00 0.1020000D+00 0.1020000D+00 0.1020000D+00 0.1057000D+01
EXPONENTS  0.1057000D+01 0.1057000D+01 0.1057000D+01 0.1057000D+01 0.1057000D+01
EXPONENTS  0.2470000D+00 0.2470000D+00 0.2470000D+00 0.2470000D+00 0.2470000D+00
EXPONENTS  0.2470000D+00
MO    1     MO 0.0        OCC NO =    2.0000000  ORB. ENERGY =    0.000000
 -0.60643227D-01 -0.11302900D+00 -0.19165656D+00 -0.29005182D+00 -0.36181679D+00
 -0.31049263D+00 -0.11890218D+00 -0.92408940D-03 -0.99148729D-02 -0.36548088D-01
 -0.10686447D+00 -0.12877688D+00  0.15512540D+00  0.87897948D-01  0.82876256D-02
 -0.34727466D-02  0.55469517D+00  0.53786773D+00  0.36284239D+00  0.22135823D+00
  0.21464302D+00  0.14479691D+00 -0.10668472D+01 -0.10344830D+01 -0.69785609D+00
  0.12507990D+00  0.46032201D-01 -0.23339851D+00  0.20119210D-01  0.45629755D-02
 -0.25506355D-01  0.63389842D-03  0.59195082D-04 -0.49410928D-03 -0.40950495D-01
  0.12804979D-01  0.28145516D-01 -0.26849299D-02 -0.26458500D-01 -0.20004352D-01
 -0.68418902D-02 -0.18393131D-02  0.86812032D-02 -0.22982795D-03 -0.67094756D-02
 -0.26349747D-02  0.58665230D-03 -0.10208486D-02  0.43419635D-03  0.97199059D-04
 -0.35382935D-03  0.14651192D-03 -0.36807013D-02  0.11698765D-02  0.21753330D-03
  0.69082553D-02 -0.28667169D-02  0.15341228D-01  0.41338487D-02 -0.64291268D-03
 -0.15993828D-01  0.19379270D-02 -0.11552846D-03  0.23631462D-04 -0.61038178D-03
  0.82540368D-04 -0.12967243D-03  0.21430441D-03  0.26404502D-03  0.58778041D-04
  0.16168409D-02 -0.10061972D-03  0.25543605D-01  0.46068943D-01  0.67928629D-01
  0.37995349D-01  0.35510182D-02  0.46940302D-04  0.59616645D-02  0.27556968D-01
  0.66108390D-02  0.35985633D-02  0.87826436D-02  0.10784365D-03  0.63273248D-03
  0.12084016D-04 -0.75954399D-03 -0.33496304D-02  0.55940150D-02 -0.22443846D-02
  0.26654854D-02  0.23111672D-02  0.73959309D-02 -0.60809886D-04  0.15126720D-03
 -0.90457316D-04  0.37862587D-03  0.24990838D-03 -0.43948342D-03  0.36049781D-01
  0.65017265D-01  0.95867919D-01  0.57433005D-01  0.58668876D-02  0.14083870D-04
  0.76356845D-02 -0.33092424D-01  0.14426678D-01  0.41150141D-02 -0.10690951D-01
  0.32104411D-02  0.62886382D-03  0.10551625D-03 -0.70850668D-03 -0.51482132D-02
  0.64261913D-02 -0.12779781D-02 -0.37604381D-02  0.27431929D-02 -0.13230574D-01
 -0.47625559D-04  0.83902793D-04 -0.36277235D-04 -0.39580179D-03  0.22155158D-03
  0.29976216D-03
MO    2     MO 0.0        OCC NO =    2.0000000  ORB. ENERGY =    0.000000
  0.13049860D+00  0.24322792D+00  0.41242713D+00  0.62416460D+00  0.77859614D+00
  0.66815132D+00  0.25586646D+00  0.35426986D-03  0.38010831D-02  0.14011508D-01
  0.40968828D-01  0.49369430D-01 -0.59470710D-01 -0.21075614D-01 -0.75042378D-02
  0.50873943D-03  0.16590163D+01  0.16086877D+01  0.10852112D+01  0.23199445D-01
  0.22495658D-01  0.15175438D-01  0.33527548D+00  0.32510443D+00  0.21931353D+00
  0.37471054D+00  0.58688884D-02  0.74349769D-01  0.61759680D-01  0.14373314D-02
  0.87486341D-02  0.19823200D-02  0.59416930D-04  0.20521450D-03  0.14072847D-01
 -0.40990094D-02 -0.99738371D-02  0.11344973D-02 -0.66678520D-01  0.76030360D-03
  0.28922582D-02  0.71180620D-04 -0.29634388D-02  0.15316544D-03 -0.17214695D-01
 -0.20878942D-03 -0.82449391D-04  0.24326148D-03 -0.16081209D-03 -0.24968249D-04
 -0.11655620D-02 -0.66551148D-04 -0.97694094D-02  0.53830866D-03  0.32374496D-03
  0.20742788D-01 -0.20162417D-02 -0.60577344D-02  0.85654401D-02  0.40131570D-03
  0.50864995D-02 -0.74226821D-03 -0.34734335D-03  0.14112633D-04  0.16337835D-03
  0.53415668D-03 -0.54598234D-04 -0.22418117D-03  0.50787338D-03  0.12260334D-04
 -0.26595390D-03  0.21741699D-04 -0.80460060D-02 -0.14511303D-01 -0.21396908D-01
 -0.11224706D-01 -0.80241451D-03 -0.38514588D-05  0.23515271D-01 -0.77002427D-02
 -0.21605067D-02  0.12675302D-01 -0.20198172D-02  0.12278502D-03  0.19334218D-02
  0.87161653D-04  0.26656662D-03  0.48574783D-03 -0.12966872D-02  0.81093941D-03
  0.11788813D-01  0.86413177D-02 -0.23772873D-02 -0.64521956D-04  0.14052433D-04
  0.50469524D-04  0.11990593D-02  0.73942159D-03  0.18034849D-03 -0.96649610D-02
 -0.17431155D-01 -0.25702228D-01 -0.14237326D-01 -0.11571951D-02  0.10788153D-05
  0.23052843D-01  0.10166874D-01 -0.33754157D-02  0.12562272D-01  0.31867457D-02
 -0.35820607D-03  0.19398407D-02  0.27094962D-04  0.25864444D-03  0.15624257D-02
 -0.22255424D-02  0.66311664D-03 -0.11485219D-01  0.85116056D-02  0.38818595D-02
  0.15505425D-04 -0.57988740D-04  0.42483315D-04 -0.12038957D-02  0.75479405D-03
 -0.10867651D-03
MO    3     MO 0.0        OCC NO =    2.0000000  ORB. ENERGY =    0.000000
  0.66130838D-01  0.12325701D+00  0.20899958D+00  0.31629864D+00  0.39455762D+00
  0.33858914D+00  0.12966165D+00  0.74577781D-03  0.80017065D-02  0.29495797D-01
  0.86243980D-01  0.10392819D+00 -0.12519252D+00 -0.69204026D-01 -0.47714319D-01
 -0.44109041D-02 -0.11203629D+00 -0.10863751D+00 -0.73286223D-01  0.13057507D+01
  0.12661390D+01  0.85412986D+00 -0.36494780D+00 -0.35387661D+00 -0.23872307D+00
 -0.24704843D-01  0.27013870D+00 -0.77434493D-01 -0.34998615D-02  0.25388518D-01
 -0.11320544D-01 -0.99812488D-04  0.24931257D-03 -0.21954132D-03 -0.98867393D-03
 -0.87447915D-02  0.97334654D-02  0.57474468D-02  0.65883084D-02 -0.12233885D+00
  0.10595147D-02 -0.35676656D-02  0.25081509D-02  0.98828619D-03  0.12988994D-02
 -0.15945128D-01  0.18689046D-03 -0.31152185D-03  0.12463140D-03 -0.62715061D-05
  0.34663718D-04  0.91729307D-03  0.86126501D-03  0.60765265D-02 -0.12571935D-02
 -0.26135387D-02 -0.13154824D-01  0.19481209D-02  0.29743630D-04 -0.50747557D-02
  0.18234595D-02 -0.70013096D-03  0.44637441D-04  0.10696590D-03 -0.35249366D-04
 -0.93209787D-04 -0.75921539D-03 -0.33082797D-04 -0.40702535D-04  0.43831768D-03
  0.13883089D-03 -0.11554572D-03 -0.35363862D-01 -0.63780181D-01 -0.94043839D-01
 -0.54717781D-01 -0.39899731D-02  0.17146524D-03  0.89378266D-03 -0.21243872D-01
 -0.32119347D-01 -0.14255079D-04 -0.44252565D-02 -0.11244834D-01 -0.97813235D-04
  0.48505385D-03 -0.39377305D-03  0.64723104D-02 -0.21370401D-02 -0.43352703D-02
  0.85467489D-03  0.11626009D-02 -0.20443284D-01 -0.13578950D-04  0.24932916D-03
 -0.23575021D-03 -0.53952548D-04 -0.30155184D-06 -0.57737160D-03  0.31899449D-01
  0.57531970D-01  0.84830856D-01  0.69665525D-01  0.10975304D-01 -0.38834918D-04
 -0.13904219D-02 -0.16405657D-01  0.17538278D-01 -0.70616991D-03 -0.93325468D-02
  0.86622523D-02 -0.96705506D-04 -0.41571296D-05 -0.48818620D-04 -0.62842134D-02
  0.44143614D-02  0.18698520D-02  0.63526705D-03 -0.55694610D-03 -0.17536919D-01
 -0.12006619D-03 -0.11985179D-04  0.13205137D-03  0.74967341D-04 -0.43995209D-04
 -0.48081055D-03
MO    4     MO 0.0        OCC NO =    2.0000000  ORB. ENERGY =    0.000000
 -0.28450709D+00 -0.53027444D+00 -0.89915482D+00 -0.13607752D+01 -0.16974598D+01
 -0.14566731D+01 -0.55782840D+00 -0.10572469D-02 -0.11343565D-01 -0.41814516D-01
 -0.12226319D+00 -0.14733309D+00  0.17747832D+00  0.75758043D-01  0.82247723D-01
  0.89560934D-02  0.16298802D+00  0.15804355D+00  0.10661525D+00  0.59498193D+00
  0.57693233D+00  0.38919514D+00  0.10087936D+01  0.97819048D+00  0.65988152D+00
  0.37664811D-01  0.12324610D+00  0.21633462D+00  0.67546987D-02  0.11719409D-01
  0.29024406D-01  0.24024498D-03  0.12189800D-03  0.56930714D-03  0.15857641D-01
  0.11039866D-01 -0.26897508D-01  0.26844360D-02 -0.37819599D-02 -0.55261788D-01
  0.35133322D-03  0.70639389D-02 -0.74152721D-02 -0.13449317D-03 -0.14856500D-02
 -0.72448167D-02 -0.51411789D-03  0.89080386D-03 -0.37668597D-03 -0.11010320D-03
 -0.18335903D-03  0.40010092D-03 -0.76067930D-03  0.28425793D-02  0.20463059D-02
  0.20276480D-02 -0.62410113D-02 -0.91595369D-02  0.25438985D-03 -0.22867265D-02
  0.30206191D-02 -0.11201816D-02 -0.39957089D-04  0.50034197D-04  0.30819105D-03
  0.85813081D-04 -0.35503026D-03  0.75980213D-04  0.34058185D-04  0.20492767D-03
 -0.10005534D-02  0.25882406D-04 -0.21920671D-01 -0.39534833D-01 -0.58294088D-01
 -0.56340056D-01 -0.11077834D-01 -0.80988836D-04  0.36089766D-02 -0.13419601D-01
 -0.11043113D-02  0.21403677D-02 -0.10287129D-01 -0.24276157D-02  0.24726216D-03
 -0.29342404D-03  0.58093200D-03  0.35092317D-02 -0.49993338D-02  0.14901021D-02
  0.24590066D-02  0.15935929D-02 -0.79814976D-02  0.14984958D-03 -0.18637965D-03
  0.36530070D-04  0.18609506D-03  0.11206212D-03 -0.16387746D-04  0.83626564D-02
  0.15082395D-01  0.22238983D-01 -0.39071368D-03 -0.43259618D-02 -0.17512152D-03
  0.23306175D-02 -0.32979448D-02  0.21275913D-01  0.12870782D-02  0.42154259D-02
  0.65393438D-02  0.21425914D-03  0.52415548D-03  0.73874450D-03 -0.21241796D-02
 -0.21667514D-02  0.42909310D-02 -0.11690321D-02  0.90174592D-03 -0.90487353D-02
  0.11099454D-03 -0.31377532D-03  0.20278078D-03 -0.11607848D-03  0.10874089D-03
 -0.45714991D-03
MO    5     MO 0.0        OCC NO =    2.0000000  ORB. ENERGY =    0.000000
  0.39145469D+00  0.72960717D+00  0.12371515D+01  0.18722972D+01  0.23355432D+01
  0.20042435D+01  0.76751880D+00 -0.61993874D-03 -0.66515359D-02 -0.24518814D-01
 -0.71691573D-01 -0.86391831D-01  0.10406812D+00  0.11029142D+00  0.47766417D-01
  0.48483327D-02 -0.32641512D+00 -0.31651287D+00 -0.21351771D+00  0.23841847D+00
  0.23118572D+00  0.15595652D+00  0.43984589D+00  0.42650256D+00  0.28771610D+00
 -0.73362733D-01  0.49170226D-01  0.94613417D-01 -0.11836991D-01  0.44785788D-02
  0.12977983D-01 -0.36840320D-03  0.36427567D-04  0.24070463D-03  0.16029344D-02
  0.99122993D-02 -0.11515234D-01  0.44182722D-03  0.14180072D-01 -0.22879093D-01
 -0.49241570D-03  0.35537612D-02 -0.30613455D-02 -0.13177702D-03  0.34901560D-02
 -0.29376128D-02 -0.21045867D-03  0.35921905D-03 -0.14876038D-03 -0.43755857D-04
  0.19915185D-03  0.17682866D-03  0.19528947D-02  0.10424457D-02  0.16188754D-02
 -0.38959964D-02 -0.21147037D-02 -0.17466943D-02 -0.19626877D-02 -0.10126333D-02
 -0.31099318D-02 -0.43046509D-04  0.78227776D-04  0.16465017D-04 -0.45111135D-04
 -0.12015100D-03 -0.12908436D-03 -0.22557170D-03 -0.11453233D-03  0.79689308D-04
  0.36090510D-03 -0.61100092D-04 -0.74179429D-02 -0.13378566D-01 -0.19726687D-01
 -0.24176063D-01 -0.55639852D-02 -0.50162828D-04 -0.40564240D-02 -0.44765485D-02
  0.12512602D-02 -0.20337865D-02 -0.52848138D-02 -0.12223606D-02 -0.34888481D-03
 -0.25353576D-03  0.19663028D-03  0.24935582D-02 -0.31765892D-02  0.68303097D-03
 -0.14563666D-02 -0.11959389D-02 -0.56904160D-02  0.10832173D-03 -0.12298376D-03
  0.14662031D-04 -0.19824652D-03 -0.12442437D-03 -0.84246151D-04  0.53812413D-02
  0.97052903D-02  0.14310445D-01 -0.57705721D-03 -0.27263717D-02 -0.90404506D-04
 -0.45233041D-02 -0.29299886D-02  0.10694510D-01 -0.24580533D-02  0.25482431D-02
  0.25470072D-02 -0.37132958D-03  0.32380886D-03  0.26168274D-03 -0.43409971D-04
 -0.18187368D-02  0.18621467D-02  0.22558865D-02 -0.16440872D-02 -0.15898789D-02
  0.74225526D-04 -0.15909262D-03  0.84867099D-04  0.23794669D-03 -0.13172922D-03
 -0.12493440D-03
END DATA
 TOTAL ENERGY =    -76.466195734020 THE VIRIAL(-V/T)=   2.00599447
