 40
GAUSSIAN              5 MOL ORBITALS    126 PRIMITIVES        3 NUCLEI   B3LYP   B3LYP   B3LYP
  O    1    (CENTRE  1)   0.09448631  0.00000000  0.00815606  CHARGE =  8.0
  H    2    (CENTRE  2)   0.00000000 -1.34807204 -1.09730160  CHARGE =  1.0
  H    3    (CENTRE  3)   0.00000000  1.44255835 -1.09730160  CHARGE =  1.0
CENTRE ASSIGNMENTS    1  1  1  1  1  1  1  1  1  1  1  1  1  1  1  1  1  1  1  1
CENTRE ASSIGNMENTS    1  1  1  1  1  1  1  1  1  1  1  1  1  1  1  1  1  1  1  1
CENTRE ASSIGNMENTS    1  1  1  1  1  1  1  1  1  1  1  1  1  1  1  1  1  1  1  1
CENTRE ASSIGNMENTS    1  1  1  1  1  1  1  1  1  1  1  1  2  2  2  2  2  2  2  2
CENTRE ASSIGNMENTS    2  2  2  2  2  2  2  2  2  2  2  2  2  2  2  2  2  2  2  3
CENTRE ASSIGNMENTS    3  3  3  3  3  3  3  3  3  3  3  3  3  3  3  3  3  3  3  3
CENTRE ASSIGNMENTS    3  3  3  3  3  3
TYPE ASSIGNMENTS      1  1  1  1  1  1  1  1  1  1  1  1  1  1  1  1  2  2  2  3
TYPE ASSIGNMENTS      3  3  4  4  4  2  3  4  2  3  4  2  3  4  5  6  7  8  9 10
TYPE ASSIGNMENTS      5  6  7  8  9 10  5  6  7  8  9 10 11 12 13 17 14 15 18 19
TYPE ASSIGNMENTS     16 20 11 12 13 17 14 15 18 19 16 20  1  1  1  1  1  1  2  3
TYPE ASSIGNMENTS      4  2  3  4  2  3  4  5  6  7  8  9 10  5  6  7  8  9 10  1
TYPE ASSIGNMENTS      1  1  1  1  1  2  3  4  2  3  4  2  3  4  5  6  7  8  9 10
TYPE ASSIGNMENTS      5  6  7  8  9 10
EXPONENTS  0.1533000D+05 0.2299000D+04 0.5224000D+03 0.1473000D+03 0.4755000D+02
EXPONENTS  0.1676000D+02 0.6207000D+01 0.5224000D+03 0.1473000D+03 0.4755000D+02
EXPONENTS  0.1676000D+02 0.6207000D+01 0.6882000D+00 0.1752000D+01 0.2384000D+00
EXPONENTS  0.7376000D-01 0.3446000D+02 0.7749000D+01 0.2280000D+01 0.3446000D+02
EXPONENTS  0.7749000D+01 0.2280000D+01 0.3446000D+02 0.7749000D+01 0.2280000D+01
EXPONENTS  0.7156000D+00 0.7156000D+00 0.7156000D+00 0.2140000D+00 0.2140000D+00
EXPONENTS  0.2140000D+00 0.5974000D-01 0.5974000D-01 0.5974000D-01 0.2314000D+01
EXPONENTS  0.2314000D+01 0.2314000D+01 0.2314000D+01 0.2314000D+01 0.2314000D+01
EXPONENTS  0.6450000D+00 0.6450000D+00 0.6450000D+00 0.6450000D+00 0.6450000D+00
EXPONENTS  0.6450000D+00 0.2140000D+00 0.2140000D+00 0.2140000D+00 0.2140000D+00
EXPONENTS  0.2140000D+00 0.2140000D+00 0.1428000D+01 0.1428000D+01 0.1428000D+01
EXPONENTS  0.1428000D+01 0.1428000D+01 0.1428000D+01 0.1428000D+01 0.1428000D+01
EXPONENTS  0.1428000D+01 0.1428000D+01 0.5000000D+00 0.5000000D+00 0.5000000D+00
EXPONENTS  0.5000000D+00 0.5000000D+00 0.5000000D+00 0.5000000D+00 0.5000000D+00
EXPONENTS  0.5000000D+00 0.5000000D+00 0.3387000D+02 0.5095000D+01 0.1159000D+01
EXPONENTS  0.3258000D+00 0.1027000D+00 0.2526000D-01 0.1407000D+01 0.1407000D+01
EXPONENTS  0.1407000D+01 0.3880000D+00 0.3880000D+00 0.3880000D+00 0.1020000D+00
EXPONENTS  0.1020000D+00 0.1020000D+00 0.1057000D+01 0.1057000D+01 0.1057000D+01
EXPONENTS  0.1057000D+01 0.1057000D+01 0.1057000D+01 0.2470000D+00 0.2470000D+00
EXPONENTS  0.2470000D+00 0.2470000D+00 0.2470000D+00 0.2470000D+00 0.3387000D+02
EXPONENTS  0.5095000D+01 0.1159000D+01 0.3258000D+00 0.1027000D+00 0.2526000D-01
EXPONENTS  0.1407000D+01 0.1407000D+01 0.1407000D+01 0.3880000D+00 0.3880000D+00
EXPONENTS  0.3880000D+00 0.1020000D+00 0.1020000D+00 0.1020000D+00 0.1057000D+01
EXPONENTS  0.1057000D+01 0.1057000D+01 0.1057000D+01 0.1057000D+01 0.1057000D+01
EXPONENTS  0.2470000D+00 0.2470000D+00 0.2470000D+00 0.2470000D+00 0.2470000D+00
EXPONENTS  0.2470000D+00
MO    1     MO 0.0        OCC NO =    2.0000000  ORB. ENERGY =    0.000000
 -0.24547253D-01 -0.45752044D-01 -0.77579019D-01 -0.11740760D+00 -0.14645672D+00
 -0.12568166D+00 -0.48129398D-01 -0.12113200D-03 -0.12996669D-02 -0.47908167D-02
 -0.14008067D-01 -0.16880402D-01  0.20334233D-01  0.92645598D-02  0.56155994D-01
  0.85366990D-02 -0.23334105D-01 -0.22626233D-01 -0.15263523D-01  0.65518728D+00
  0.63531127D+00  0.42857723D+00  0.14446007D+01  0.14007767D+01  0.94495569D+00
 -0.66224500D-02  0.13117339D+00  0.31011376D+00 -0.23356956D-02  0.10520612D-01
  0.35921520D-01 -0.11177190D-03  0.83988351D-04  0.68796874D-03  0.39267869D-01
  0.18788954D-02 -0.41146764D-01 -0.53728806D-02 -0.75122984D-02 -0.64934654D-01
  0.45877233D-02  0.66842221D-02 -0.11271945D-01 -0.52606658D-03 -0.11593876D-02
 -0.55190060D-02 -0.91974592D-03  0.13750893D-02 -0.45534335D-03  0.81932551D-04
  0.17757838D-03  0.11130966D-02 -0.55646818D-03  0.27263441D-02  0.19571895D-02
 -0.86403489D-03 -0.55318164D-02 -0.16779928D-01  0.25334394D-02 -0.26472160D-02
  0.10908359D-01  0.43390820D-03  0.30447593D-04  0.17192621D-03  0.65277114D-03
 -0.20520406D-03 -0.14822605D-03  0.76484755D-04  0.11386128D-03 -0.36755259D-03
 -0.20347982D-02  0.12060102D-04 -0.43843821D-01 -0.79074136D-01 -0.11659477D+00
 -0.87908245D-01 -0.11648891D-01 -0.46365786D-04 -0.36338476D-02 -0.37591559D-01
 -0.16466922D-01 -0.16517008D-02 -0.15461350D-01 -0.52650496D-02 -0.95488910D-04
  0.17035692D-04  0.98724305D-03  0.75120850D-02 -0.86345023D-02  0.11224173D-02
 -0.27262474D-02 -0.19501835D-02 -0.19413052D-01 -0.43747653D-04 -0.27370078D-04
  0.71117731D-04 -0.61393634D-04 -0.58332672D-04  0.60917369D-03 -0.82509461D-02
 -0.14880921D-01 -0.21941910D-01 -0.19616089D-01 -0.42231939D-02 -0.15110780D-03
 -0.93360645D-03  0.14091025D-01  0.12811547D-01 -0.62336267D-03  0.76496505D-02
  0.55458282D-02 -0.76870532D-04  0.25804215D-03  0.10757244D-02  0.27154337D-03
 -0.50536881D-02  0.47821447D-02  0.72999526D-03  0.33289241D-04 -0.32405891D-02
  0.46420453D-04 -0.19942656D-03  0.15300611D-03  0.42306598D-04 -0.45131742D-04
 -0.72821072D-03
MO    2     MO 0.0        OCC NO =    2.0000000  ORB. ENERGY =    0.000000
  0.11899688D+00  0.22179062D+00  0.37607716D+00  0.56915279D+00  0.70997324D+00
  0.60926267D+00  0.23331523D+00  0.98249691D-04  0.10541547D-02  0.38858127D-02
  0.11361888D-01  0.13691628D-01 -0.16493017D-01  0.32189165D-02 -0.24163035D-01
 -0.39376913D-02 -0.11439205D+00 -0.11092181D+00 -0.74827196D-01  0.12966480D+01
  0.12573124D+01  0.84817552D+00 -0.66691613D+00 -0.64668431D+00 -0.43624942D+00
 -0.25457308D-01  0.26582450D+00 -0.14633083D+00 -0.37042566D-02  0.24524062D-01
 -0.18614782D-01 -0.97018835D-04  0.23299889D-03 -0.35498677D-03 -0.18241969D-01
  0.49062733D-04  0.18192906D-01 -0.10240930D-01  0.87504004D-02 -0.12063735D+00
 -0.26358967D-02 -0.25802877D-02  0.52161844D-02 -0.12773890D-02  0.19665623D-02
 -0.14694513D-01  0.25023138D-03 -0.54530671D-03  0.29507533D-03  0.80348270D-04
  0.45837223D-04  0.10011729D-02  0.10694450D-02  0.59981353D-02 -0.81243132D-03
 -0.11994411D-02 -0.12261074D-01  0.82519910D-02 -0.20088939D-02 -0.57333322D-02
 -0.58146970D-02  0.10994831D-02  0.20696171D-04  0.30724971D-04 -0.22582569D-03
  0.35084124D-04 -0.64106484D-03  0.12446220D-03 -0.97172636D-04  0.54888993D-03
  0.55301488D-03  0.22449134D-03 -0.21309403D-01 -0.38432386D-01 -0.56668531D-01
 -0.38374030D-01 -0.36137893D-02  0.13771806D-03 -0.32763025D-02 -0.73749980D-02
 -0.28149793D-01 -0.14170726D-02 -0.14883326D-02 -0.11081493D-01 -0.12760952D-03
  0.30578677D-03 -0.67087435D-03  0.51268387D-02  0.52578153D-03 -0.56526202D-02
 -0.18949617D-02 -0.21885570D-02 -0.17288400D-01 -0.95564264D-05  0.24383901D-03
 -0.23428258D-03 -0.95709663D-04 -0.69249944D-04 -0.60163066D-03  0.44935200D-01
  0.81042483D-01  0.11949709D+00  0.85745129D-01  0.11771119D-01 -0.43820516D-04
  0.12602109D-02 -0.29563052D-01  0.24021880D-01  0.39437819D-03 -0.12448193D-01
  0.96327998D-02 -0.87749927D-04  0.34161380D-04 -0.25453889D-03 -0.78707503D-02
  0.63401315D-02  0.15306189D-02 -0.14588156D-02  0.13283064D-02 -0.21672160D-01
 -0.15297054D-03  0.33721396D-04  0.11924915D-03  0.75522181D-05  0.22110003D-04
 -0.39011715D-03
MO    3     MO 0.0        OCC NO =    2.0000000  ORB. ENERGY =    0.000000
  0.45239069D+00  0.84318187D+00  0.14297333D+01  0.21637494D+01  0.26991068D+01
  0.23162352D+01  0.88699503D+00  0.63728550D-03  0.68376552D-02  0.25204885D-01
  0.73697604D-01  0.88809196D-01 -0.10698009D+00 -0.12498909D-01 -0.21703569D-01
 -0.73452120D-03  0.67255055D+00  0.65214780D+00  0.43993505D+00 -0.21175712D+00
 -0.20533317D+00 -0.13851654D+00  0.10256718D+00  0.99455661D-01  0.67092202D-01
  0.15175704D+00 -0.45253315D-01  0.23035198D-01  0.24470856D-01 -0.47107683D-02
  0.33230763D-03  0.76967823D-03 -0.53561757D-04 -0.18117897D-04  0.75661959D-02
 -0.53735321D-02 -0.21926638D-02  0.92490328D-03 -0.30324978D-01  0.20164485D-01
  0.18989188D-02 -0.93036406D-03 -0.96855473D-03  0.54090023D-03 -0.76000157D-02
  0.34558651D-02 -0.12688003D-03  0.15810346D-03 -0.31223440D-04  0.59509107D-04
 -0.42456429D-03 -0.14607345D-05 -0.41656071D-02 -0.10322173D-02 -0.27966196D-03
  0.82823263D-02  0.26900287D-02 -0.10239001D-02  0.42144949D-02  0.40662325D-03
  0.18628860D-02 -0.10728015D-03 -0.13057554D-03  0.65285692D-05  0.55880277D-04
  0.14576491D-03  0.15391682D-03 -0.22131302D-03  0.24596172D-03 -0.17350253D-03
  0.53672190D-04 -0.28159619D-03 -0.51227458D-02 -0.92390830D-02 -0.13623022D-01
 -0.30464699D-02  0.93888256D-03 -0.39771870D-05  0.96809827D-02 -0.91269721D-02
 -0.45049372D-02  0.53805487D-02 -0.18708978D-02 -0.62297581D-03  0.81647180D-03
  0.91845363D-05  0.38405834D-04  0.19258312D-02 -0.19634172D-02  0.37585942D-04
  0.44047329D-02  0.35175883D-02 -0.49078916D-02  0.55961889D-05 -0.12381754D-04
  0.67855653D-05  0.52199210D-03  0.35326530D-03  0.10538248D-03 -0.15320691D-01
 -0.27631498D-01 -0.40742627D-01 -0.21272514D-01 -0.11594595D-02  0.40505257D-04
  0.82183265D-02  0.13414508D-01 -0.11158819D-01  0.46778104D-02  0.33038312D-02
 -0.33293756D-02  0.76394310D-03 -0.14622431D-03  0.92022774D-05  0.33416091D-02
 -0.24914549D-02 -0.85015419D-03 -0.37698298D-02  0.26399998D-02  0.91710037D-02
  0.23997584D-04  0.46598675D-04 -0.70596258D-04 -0.46729214D-03  0.27072167D-03
  0.61621397D-04
MO    4     MO 0.0        OCC NO =    2.0000000  ORB. ENERGY =    0.000000
 -0.14293721D+00 -0.26641145D+00 -0.45173806D+00 -0.68365752D+00 -0.85280887D+00
 -0.73183688D+00 -0.28025465D+00 -0.73476807D-03 -0.78835792D-02 -0.29060357D-01
 -0.84970780D-01 -0.10239392D+00  0.12334433D+00  0.58982172D-01  0.37937373D-01
  0.28118395D-02  0.15804148D+01  0.15324708D+01  0.10337957D+01  0.15147833D+00
  0.14688303D+00  0.99086423D-01 -0.27097434D-01 -0.26275396D-01 -0.17725227D-01
  0.35642363D+00  0.31947808D-01 -0.85683715D-02  0.58250350D-01  0.31454680D-02
 -0.35706065D-03  0.18325950D-02  0.31396124D-04 -0.73995263D-04 -0.11534321D-01
  0.85448729D-02  0.29894477D-02 -0.30839348D-02 -0.65795465D-01 -0.13791981D-01
 -0.32897573D-02  0.23085721D-02  0.98118528D-03  0.38377361D-03 -0.16208872D-01
 -0.23599742D-02 -0.13286681D-03  0.62198071D-04  0.70668736D-04  0.14608504D-03
 -0.10166221D-02  0.46060919D-04 -0.92972339D-02  0.77254567D-03  0.26608930D-04
  0.18944740D-01 -0.16827009D-02  0.48909026D-02  0.89469620D-02 -0.63493611D-03
 -0.49707293D-02  0.86214761D-03 -0.24660339D-03  0.99191150D-06 -0.10637876D-03
  0.34547622D-03 -0.18437832D-03  0.21559773D-03  0.39433395D-03  0.18140259D-03
  0.10353854D-03 -0.47397306D-03  0.28600908D-02  0.51582915D-02  0.76058977D-02
 -0.48203676D-02 -0.26600974D-02 -0.30641795D-04  0.24271350D-01  0.53053936D-02
  0.31565337D-02  0.12884070D-01 -0.82098968D-03 -0.84382370D-03  0.19285404D-02
 -0.13565248D-03 -0.12221736D-03  0.35842453D-03  0.67160728D-04 -0.42558526D-03
  0.11559038D-01  0.90276581D-02  0.65872730D-03  0.11685443D-03 -0.44070038D-04
 -0.72784397D-04  0.12076072D-02  0.80916314D-03 -0.18231864D-03  0.10174625D-01
  0.18350355D-01  0.27057588D-01  0.91861046D-02 -0.10216958D-02 -0.58521991D-04
  0.22581958D-01 -0.89320479D-02  0.83297638D-02  0.11958843D-01 -0.53452191D-03
  0.14815784D-02  0.18128556D-02  0.21911477D-03 -0.79579540D-04 -0.97225244D-03
  0.59737371D-03  0.37487873D-03 -0.11235400D-01  0.82478804D-02 -0.44180205D-02
  0.91324268D-04 -0.87464164D-04 -0.38601032D-05 -0.11221300D-02  0.66797702D-03
  0.53662422D-04
MO    5     MO 0.0        OCC NO =    2.0000000  ORB. ENERGY =    0.000000
  0.13950982D+00  0.26002337D+00  0.44090617D+00  0.66726460D+00  0.83236000D+00
  0.71428871D+00  0.27353463D+00 -0.14333937D-02 -0.15379373D-01 -0.56691266D-01
 -0.16576194D+00 -0.19975119D+00  0.24062148D+00  0.16448104D+00  0.76376070D-01
  0.57803769D-02 -0.48663357D+00 -0.47187087D+00 -0.31832130D+00 -0.14064795D+00
 -0.13638120D+00 -0.92001955D-01  0.24680408D+00  0.23931694D+00  0.16144179D+00
 -0.11012658D+00 -0.27546534D-01  0.52024157D-01 -0.17763480D-01 -0.21666053D-02
  0.10910467D-01 -0.57161382D-03 -0.22712707D-04  0.21408611D-03 -0.12416297D-01
  0.19062708D-01 -0.66464104D-02  0.19038838D-02  0.22904784D-01  0.15130329D-01
 -0.31067616D-02  0.43382874D-02 -0.12315258D-02 -0.13501409D-03  0.57584114D-02
  0.61708718D-03  0.11330430D-04  0.64830335D-04 -0.76160765D-04 -0.66549477D-04
  0.32227386D-03 -0.24508703D-03  0.32701354D-02 -0.40694125D-03  0.23900774D-02
 -0.69783291D-02  0.10250889D-02  0.17821075D-02 -0.28320771D-02  0.19573483D-03
 -0.89523396D-02 -0.36151107D-03  0.66620943D-04 -0.41607514D-04 -0.27206182D-03
 -0.19652515D-04 -0.77710273D-04 -0.21738141D-03 -0.18021031D-03  0.20253282D-03
  0.10335669D-02  0.22050922D-03  0.17304285D-01  0.31208991D-01  0.46017638D-01
  0.10755104D-01 -0.32880689D-02 -0.10291399D-03 -0.59835177D-02  0.16310632D-01
  0.20076655D-01 -0.38361211D-02 -0.36280491D-03  0.37463768D-02 -0.61175757D-03
 -0.45111680D-03  0.12011885D-03 -0.21955090D-02  0.81275980D-04  0.21142331D-02
 -0.30809057D-02 -0.21971544D-02  0.71266765D-02  0.10281695D-03 -0.17359629D-03
  0.70779341D-04 -0.40285170D-03 -0.27557397D-03 -0.12222548D-03  0.89941073D-02
  0.16221243D-01  0.23918213D-01 -0.31887922D-02 -0.48093319D-02 -0.80867700D-04
 -0.59546654D-02 -0.11039555D-01  0.12414293D-01 -0.36584880D-02  0.18448451D-02
  0.16062804D-02 -0.57507392D-03  0.41375535D-03  0.10141236D-03 -0.54482669D-03
 -0.64886217D-03  0.11936889D-02  0.33038798D-02 -0.22720953D-02 -0.20978629D-02
  0.90381211D-04 -0.15819849D-03  0.67817279D-04  0.37162687D-03 -0.22343572D-03
  0.11893296D-03
END DATA
 TOTAL ENERGY =    -76.464513966748 THE VIRIAL(-V/T)=   2.00490221
