 40
GAUSSIAN              5 MOL ORBITALS    126 PRIMITIVES        3 NUCLEI   B3LYP   B3LYP   B3LYP
  O    1    (CENTRE  1)  -0.09448631  0.00000000  0.00815606  CHARGE =  8.0
  H    2    (CENTRE  2)   0.00000000 -1.34807204 -1.09730160  CHARGE =  1.0
  H    3    (CENTRE  3)   0.00000000  1.44255835 -1.09730160  CHARGE =  1.0
CENTRE ASSIGNMENTS    1  1  1  1  1  1  1  1  1  1  1  1  1  1  1  1  1  1  1  1
CENTRE ASSIGNMENTS    1  1  1  1  1  1  1  1  1  1  1  1  1  1  1  1  1  1  1  1
CENTRE ASSIGNMENTS    1  1  1  1  1  1  1  1  1  1  1  1  1  1  1  1  1  1  1  1
CENTRE ASSIGNMENTS    1  1  1  1  1  1  1  1  1  1  1  1  2  2  2  2  2  2  2  2
CENTRE ASSIGNMENTS    2  2  2  2  2  2  2  2  2  2  2  2  2  2  2  2  2  2  2  3
CENTRE ASSIGNMENTS    3  3  3  3  3  3  3  3  3  3  3  3  3  3  3  3  3  3  3  3
CENTRE ASSIGNMENTS    3  3  3  3  3  3
TYPE ASSIGNMENTS      1  1  1  1  1  1  1  1  1  1  1  1  1  1  1  1  2  2  2  3
TYPE ASSIGNMENTS      3  3  4  4  4  2  3  4  2  3  4  2  3  4  5  6  7  8  9 10
TYPE ASSIGNMENTS      5  6  7  8  9 10  5  6  7  8  9 10 11 12 13 17 14 15 18 19
TYPE ASSIGNMENTS     16 20 11 12 13 17 14 15 18 19 16 20  1  1  1  1  1  1  2  3
TYPE ASSIGNMENTS      4  2  3  4  2  3  4  5  6  7  8  9 10  5  6  7  8  9 10  1
TYPE ASSIGNMENTS      1  1  1  1  1  2  3  4  2  3  4  2  3  4  5  6  7  8  9 10
TYPE ASSIGNMENTS      5  6  7  8  9 10
EXPONENTS  0.1533000D+05 0.2299000D+04 0.5224000D+03 0.1473000D+03 0.4755000D+02
EXPONENTS  0.1676000D+02 0.6207000D+01 0.5224000D+03 0.1473000D+03 0.4755000D+02
EXPONENTS  0.1676000D+02 0.6207000D+01 0.6882000D+00 0.1752000D+01 0.2384000D+00
EXPONENTS  0.7376000D-01 0.3446000D+02 0.7749000D+01 0.2280000D+01 0.3446000D+02
EXPONENTS  0.7749000D+01 0.2280000D+01 0.3446000D+02 0.7749000D+01 0.2280000D+01
EXPONENTS  0.7156000D+00 0.7156000D+00 0.7156000D+00 0.2140000D+00 0.2140000D+00
EXPONENTS  0.2140000D+00 0.5974000D-01 0.5974000D-01 0.5974000D-01 0.2314000D+01
EXPONENTS  0.2314000D+01 0.2314000D+01 0.2314000D+01 0.2314000D+01 0.2314000D+01
EXPONENTS  0.6450000D+00 0.6450000D+00 0.6450000D+00 0.6450000D+00 0.6450000D+00
EXPONENTS  0.6450000D+00 0.2140000D+00 0.2140000D+00 0.2140000D+00 0.2140000D+00
EXPONENTS  0.2140000D+00 0.2140000D+00 0.1428000D+01 0.1428000D+01 0.1428000D+01
EXPONENTS  0.1428000D+01 0.1428000D+01 0.1428000D+01 0.1428000D+01 0.1428000D+01
EXPONENTS  0.1428000D+01 0.1428000D+01 0.5000000D+00 0.5000000D+00 0.5000000D+00
EXPONENTS  0.5000000D+00 0.5000000D+00 0.5000000D+00 0.5000000D+00 0.5000000D+00
EXPONENTS  0.5000000D+00 0.5000000D+00 0.3387000D+02 0.5095000D+01 0.1159000D+01
EXPONENTS  0.3258000D+00 0.1027000D+00 0.2526000D-01 0.1407000D+01 0.1407000D+01
EXPONENTS  0.1407000D+01 0.3880000D+00 0.3880000D+00 0.3880000D+00 0.1020000D+00
EXPONENTS  0.1020000D+00 0.1020000D+00 0.1057000D+01 0.1057000D+01 0.1057000D+01
EXPONENTS  0.1057000D+01 0.1057000D+01 0.1057000D+01 0.2470000D+00 0.2470000D+00
EXPONENTS  0.2470000D+00 0.2470000D+00 0.2470000D+00 0.2470000D+00 0.3387000D+02
EXPONENTS  0.5095000D+01 0.1159000D+01 0.3258000D+00 0.1027000D+00 0.2526000D-01
EXPONENTS  0.1407000D+01 0.1407000D+01 0.1407000D+01 0.3880000D+00 0.3880000D+00
EXPONENTS  0.3880000D+00 0.1020000D+00 0.1020000D+00 0.1020000D+00 0.1057000D+01
EXPONENTS  0.1057000D+01 0.1057000D+01 0.1057000D+01 0.1057000D+01 0.1057000D+01
EXPONENTS  0.2470000D+00 0.2470000D+00 0.2470000D+00 0.2470000D+00 0.2470000D+00
EXPONENTS  0.2470000D+00
MO    1     MO 0.0        OCC NO =    2.0000000  ORB. ENERGY =    0.000000
  0.15970378D+00  0.29766158D+00  0.50472704D+00  0.76385070D+00  0.95284354D+00
  0.81768152D+00  0.31312858D+00 -0.92746858D-04 -0.99511293D-03 -0.36681736D-02
 -0.10725524D-01 -0.12924779D-01  0.15569265D-01  0.27664974D-01  0.13842160D-01
  0.13884073D-02  0.79168896D-01  0.76767198D-01  0.51786699D-01  0.13882316D+01
  0.13461177D+01  0.90808306D+00  0.16091884D+00  0.15603714D+00  0.10526174D+00
  0.18251742D-01  0.28305718D+00  0.31788425D-01  0.31979152D-02  0.25345842D-01
  0.26184655D-02  0.10380878D-03  0.23188586D-03  0.48624537D-04  0.22431575D-02
  0.28753153D-02 -0.51184728D-02  0.11061562D-01 -0.27421817D-02 -0.13073977D+00
 -0.28873360D-03  0.14555517D-02 -0.11668181D-02  0.13021921D-02 -0.84361325D-03
 -0.14831061D-01 -0.23930944D-03  0.21604099D-03  0.23268445D-04 -0.10806918D-03
 -0.10697236D-03  0.13628195D-02 -0.50360090D-03  0.63022964D-02  0.51510996D-03
  0.12037005D-02 -0.12771923D-01 -0.76679136D-03  0.30710218D-03 -0.61349660D-02
 -0.77853852D-03 -0.11031663D-02 -0.23456773D-04  0.10408758D-03  0.88163844D-04
  0.50249200D-04 -0.61674215D-03  0.92056008D-04  0.20121120D-04  0.30447941D-03
 -0.35654754D-03 -0.19026348D-03 -0.37641870D-01 -0.67888662D-01 -0.10010179D+00
 -0.74099601D-01 -0.90285360D-02  0.82231830D-04  0.39728635D-02 -0.23225547D-01
 -0.29994288D-01  0.17566172D-02 -0.89514779D-02 -0.11651487D-01  0.12117976D-03
  0.21255964D-03 -0.86143901D-04  0.79490257D-02 -0.38954941D-02 -0.40535316D-02
  0.27103177D-02  0.26048645D-02 -0.23806620D-01 -0.14023389D-04  0.17238447D-03
 -0.15836108D-03  0.91568888D-04  0.74316593D-04 -0.23172970D-03  0.34217958D-01
  0.61713496D-01  0.90996514D-01  0.61623761D-01  0.73419002D-02 -0.11639922D-03
 -0.10412575D-02 -0.18666915D-01  0.27205171D-01 -0.22698283D-03 -0.64364483D-02
  0.10781753D-01  0.80438347D-04  0.19176792D-03  0.30912914D-03 -0.63373729D-02
  0.26715859D-02  0.36657870D-02  0.10257358D-02 -0.12520038D-02 -0.19456773D-01
 -0.94037688D-04 -0.82392656D-04  0.17643034D-03 -0.96955632D-05 -0.64315164D-05
 -0.66114058D-03
MO    2     MO 0.0        OCC NO =    2.0000000  ORB. ENERGY =    0.000000
 -0.20003761D+00 -0.37283722D+00 -0.63219790D+00 -0.95676430D+00 -0.11934881D+01
 -0.10241903D+01 -0.39221048D+00 -0.16752539D-03 -0.17974375D-02 -0.66256930D-02
 -0.19373138D-01 -0.23345573D-01  0.28122217D-01 -0.62935666D-02  0.56493190D-01
  0.86202570D-02  0.15603109D+00  0.15129767D+00  0.10206451D+00  0.71278731D-01
  0.69116393D-01  0.46625510D-01  0.14781225D+01  0.14332816D+01  0.96688328D+00
  0.36491035D-01  0.12260519D-01  0.31856280D+00  0.71680041D-02 -0.12299708D-03
  0.37787455D-01  0.26558303D-03 -0.12399875D-04  0.73118313D-03  0.40962253D-01
  0.10910802D-02 -0.42053333D-01  0.54555503D-03  0.21103099D-02 -0.10358200D-01
  0.49367098D-02  0.66418005D-02 -0.11578510D-01  0.48544835D-04 -0.17900191D-03
  0.65354537D-03 -0.86014060D-03  0.13647426D-02 -0.50460195D-03 -0.21444590D-04
 -0.24890349D-03  0.54752004D-03 -0.17235566D-03  0.58750032D-04  0.18932509D-02
  0.24042266D-02 -0.25251774D-03 -0.17977646D-01 -0.18871596D-02  0.76267644D-04
  0.12297893D-01  0.64708423D-04 -0.53772896D-04  0.13635203D-03  0.66946341D-03
  0.23891977D-03  0.11880275D-03  0.83539133D-04 -0.77601081D-04 -0.52785885D-03
 -0.20919294D-02  0.15581696D-04 -0.28764127D-01 -0.51877287D-01 -0.76493029D-01
 -0.59038902D-01 -0.83359246D-02 -0.87793401D-04  0.45164096D-02 -0.28286515D-01
 -0.27411046D-02  0.23038250D-02 -0.12085626D-01  0.88205925D-04  0.25038930D-03
 -0.75148823D-04  0.11181251D-02  0.39244922D-02 -0.71272797D-02  0.32027875D-02
  0.27877151D-02  0.17589104D-02 -0.86063007D-02 -0.47552752D-04 -0.10809944D-03
  0.15565219D-03  0.15251977D-03  0.11520861D-03  0.76904507D-03 -0.23355645D-01
 -0.42122868D-01 -0.62110144D-01 -0.47913890D-01 -0.79072537D-02 -0.11288883D-03
  0.37019071D-02  0.22435109D-01  0.23388443D-02  0.19966623D-02  0.10876795D-01
  0.13361947D-02  0.23714555D-03  0.20290428D-03  0.10239062D-02  0.27931244D-02
 -0.63543344D-02  0.35612100D-02 -0.23114037D-02  0.12977745D-02  0.43799691D-02
  0.88273781D-04 -0.18155526D-03  0.93281481D-04 -0.15943352D-03  0.12125719D-03
 -0.48670963D-03
MO    3     MO 0.0        OCC NO =    2.0000000  ORB. ENERGY =    0.000000
  0.40055101D+00  0.74656122D+00  0.12658995D+01  0.19158042D+01  0.23898148D+01
  0.20508166D+01  0.78535381D+00  0.36829936D-03  0.39516104D-02  0.14566380D-01
  0.42591241D-01  0.51324516D-01 -0.61825819D-01  0.92655601D-02  0.56089979D-02
  0.25793976D-02 -0.69456854D+00 -0.67349785D+00 -0.45433767D+00 -0.40424845D+00
 -0.39198502D+00 -0.26443078D+00  0.54830473D+00  0.53167115D+00  0.35866222D+00
 -0.15634712D+00 -0.85008223D-01  0.11919319D+00 -0.24922601D-01 -0.85885053D-02
  0.12545447D-01 -0.77080461D-03 -0.92975271D-04  0.21365793D-03  0.16888836D-01
 -0.23162841D-02 -0.14572552D-01 -0.24298503D-02  0.33367903D-01  0.37548440D-01
  0.27798212D-02  0.15471982D-02 -0.43270194D-02 -0.73466828D-03  0.81579165D-02
  0.57919420D-02 -0.35530620D-03  0.54434221D-03 -0.18903601D-03 -0.52565293D-04
  0.40170888D-03 -0.65946481D-04  0.44654751D-02 -0.19463679D-02  0.54060203D-03
 -0.82670628D-02  0.45486749D-02 -0.56068734D-02 -0.51293624D-02  0.12904289D-02
  0.39850673D-02  0.28203009D-03  0.12936055D-03  0.25825773D-04  0.19357799D-03
 -0.10831103D-03  0.25736533D-03 -0.23642351D-03 -0.27977062D-03 -0.33484265D-03
 -0.34431047D-03  0.32175978D-03 -0.56942584D-02 -0.10269829D-01 -0.15142858D-01
 -0.86982200D-02 -0.84015059D-03 -0.58243762D-04 -0.99820610D-02 -0.11718490D-01
  0.18707938D-02 -0.54307528D-02 -0.43112464D-02  0.15040776D-02 -0.82653854D-03
 -0.11700936D-03  0.38682505D-03  0.17300172D-02 -0.35503103D-02  0.18202931D-02
 -0.44355369D-02 -0.37652271D-02 -0.31806175D-02  0.16569640D-04 -0.96727982D-04
  0.80158341D-04 -0.52924058D-03 -0.35545807D-03  0.33578843D-03 -0.25512145D-01
 -0.46012205D-01 -0.67844969D-01 -0.44519809D-01 -0.53022111D-02  0.98767045D-05
 -0.78939272D-02  0.20869465D-01 -0.12354408D-01 -0.44792599D-02  0.77304773D-02
 -0.42458243D-02 -0.76806873D-03 -0.44815794D-04  0.27381057D-03  0.50262276D-02
 -0.48655219D-02 -0.16070576D-03  0.33385107D-02 -0.23871928D-02  0.12926443D-01
  0.82897417D-04 -0.21736403D-04 -0.61161014D-04  0.45804660D-03 -0.25523705D-03
  0.35861829D-04
MO    4     MO 0.0        OCC NO =    2.0000000  ORB. ENERGY =    0.000000
  0.17744490D+00  0.33072811D+00  0.56079599D+00  0.84870510D+00  0.10586927D+01
  0.90851585D+00  0.34791331D+00  0.61819469D-03  0.66328233D-02  0.24449836D-01
  0.71489885D-01  0.86148787D-01 -0.10377534D+00 -0.42869520D-01 -0.31706960D-01
 -0.23439594D-02  0.15866443D+01  0.15385113D+01  0.10378706D+01 -0.18685023D+00
 -0.18118187D+00 -0.12222422D+00  0.40715860D-01  0.39480689D-01  0.26633439D-01
  0.35784685D+00 -0.39113495D-01  0.11437099D-01  0.58461114D-01 -0.37737066D-02
  0.10763877D-02  0.18400996D-02 -0.37789440D-04  0.86697559D-04  0.10150317D-01
 -0.68623411D-02 -0.32879757D-02 -0.33978202D-02 -0.66301565D-01  0.17360697D-01
  0.30000004D-02 -0.19788092D-02 -0.10211912D-02  0.35866629D-03 -0.16331024D-01
  0.26856525D-02  0.13774108D-03 -0.63117543D-04 -0.74623540D-04  0.15027177D-03
 -0.10200122D-02 -0.87289915D-04 -0.93720596D-02 -0.91006701D-03  0.17781421D-03
  0.19116849D-01  0.20095725D-02 -0.45488312D-02  0.89993300D-02  0.72062853D-03
  0.40153886D-02  0.90686857D-03 -0.24508416D-03 -0.70644326D-05  0.73767159D-04
  0.33592836D-03  0.18660960D-03 -0.24786784D-03  0.39932410D-03 -0.16541631D-03
  0.26566364D-04 -0.47884836D-03 -0.74422788D-03 -0.13422456D-02 -0.19791404D-02
  0.69303779D-02  0.25145292D-02  0.20102860D-04  0.24203367D-01 -0.35851294D-02
 -0.10493959D-02  0.12906990D-01  0.88666429D-03  0.12838296D-02  0.19373457D-02
  0.88919582D-04  0.12518553D-03 -0.59344994D-03 -0.46707233D-04  0.64015717D-03
  0.11546221D-01  0.89930369D-02  0.11989110D-03 -0.10499645D-03  0.25405272D-04
  0.79591174D-04  0.12145214D-02  0.81396530D-03  0.16830123D-03 -0.99778371D-02
 -0.17995440D-01 -0.26534266D-01 -0.10485043D-01  0.49421030D-03  0.53995652D-04
  0.22638796D-01  0.83272067D-02 -0.77994924D-02  0.12021567D-01  0.81721268D-03
 -0.15686509D-02  0.18215634D-02 -0.18658518D-03  0.77153296D-04  0.10917998D-02
 -0.73433806D-03 -0.35746170D-03 -0.11312321D-01  0.83029150D-02  0.47244422D-02
 -0.80662315D-04  0.75661666D-04  0.50006490D-05 -0.11295649D-02  0.67281495D-03
 -0.28257564D-04
MO    5     MO 0.0        OCC NO =    2.0000000  ORB. ENERGY =    0.000000
  0.43197867D-01  0.80513721D-01  0.13652233D+00  0.20661203D+00  0.25773222D+00
  0.22117259D+00  0.84697351D-01 -0.15717775D-02 -0.16864141D-01 -0.62164398D-01
 -0.18176505D+00 -0.21903573D+00  0.26385175D+00  0.16750140D+00  0.84030132D-01
  0.64695764D-02  0.41230866D+00  0.39980071D+00  0.26970320D+00 -0.25987980D+00
 -0.25199598D+00 -0.16999500D+00  0.30129394D+00  0.29215377D+00  0.19708521D+00
  0.93403885D-01 -0.51657591D-01  0.63743430D-01  0.15039929D-01 -0.42967734D-02
  0.12761151D-01  0.48789367D-03 -0.41421256D-04  0.24656384D-03 -0.12165017D-01
  0.20171623D-01 -0.80066065D-02 -0.27622850D-02 -0.19621245D-01  0.26156703D-01
 -0.33005516D-02  0.48796389D-02 -0.15790873D-02  0.10633222D-04 -0.49860762D-02
  0.17704791D-02 -0.10141378D-04  0.10867368D-03 -0.98532298D-04  0.70684208D-04
 -0.27582619D-03 -0.36674114D-03 -0.28069033D-02 -0.94842965D-03  0.24715215D-02
  0.61118695D-02  0.20344174D-02  0.13761961D-02  0.23088405D-02  0.81087156D-03
 -0.87907606D-02  0.39940291D-03 -0.58436308D-04 -0.46200204D-04 -0.25825553D-03
  0.11843411D-04 -0.33387167D-04 -0.17683222D-03  0.16346551D-03  0.17198778D-03
  0.95159882D-03 -0.18396985D-03  0.20807893D-01  0.37527892D-01  0.55334854D-01
  0.15766511D-01 -0.30812877D-02 -0.11998275D-03  0.45755045D-02  0.18848669D-01
  0.24189430D-01  0.31503700D-02  0.10023896D-03  0.50970881D-02  0.52123913D-03
 -0.49331659D-03  0.18064408D-03 -0.30724026D-02  0.34252744D-03  0.27298752D-02
  0.23285028D-02  0.15368121D-02  0.10005596D-01  0.11183049D-03 -0.20256878D-03
  0.90738286D-04  0.34526082D-03  0.23663198D-03 -0.78284743D-04  0.62935880D-02
  0.11350745D-01  0.16736667D-01 -0.99454752D-02 -0.60931631D-02 -0.83982990D-04
  0.50779890D-02 -0.98726163D-02  0.11408344D-01  0.31944440D-02  0.28139810D-02
  0.94217071D-03  0.49360174D-03  0.43996763D-03  0.11749681D-03 -0.10990451D-03
 -0.99737801D-03  0.11072825D-02 -0.29177917D-02  0.20090378D-02 -0.10235949D-02
  0.11236493D-03 -0.17265064D-03  0.60285715D-04 -0.32596714D-03  0.19839907D-03
  0.16500438D-03
END DATA
 TOTAL ENERGY =    -76.464513966748 THE VIRIAL(-V/T)=   2.00490221
