 40
GAUSSIAN              5 MOL ORBITALS    126 PRIMITIVES        3 NUCLEI   B3LYP   B3LYP   B3LYP
  O    1    (CENTRE  1)   0.09448631  0.00000000  0.00815606  CHARGE =  8.0
  H    2    (CENTRE  2)   0.00000000 -1.53704465 -1.09730160  CHARGE =  1.0
  H    3    (CENTRE  3)   0.00000000  1.44255835 -1.09730160  CHARGE =  1.0
CENTRE ASSIGNMENTS    1  1  1  1  1  1  1  1  1  1  1  1  1  1  1  1  1  1  1  1
CENTRE ASSIGNMENTS    1  1  1  1  1  1  1  1  1  1  1  1  1  1  1  1  1  1  1  1
CENTRE ASSIGNMENTS    1  1  1  1  1  1  1  1  1  1  1  1  1  1  1  1  1  1  1  1
CENTRE ASSIGNMENTS    1  1  1  1  1  1  1  1  1  1  1  1  2  2  2  2  2  2  2  2
CENTRE ASSIGNMENTS    2  2  2  2  2  2  2  2  2  2  2  2  2  2  2  2  2  2  2  3
CENTRE ASSIGNMENTS    3  3  3  3  3  3  3  3  3  3  3  3  3  3  3  3  3  3  3  3
CENTRE ASSIGNMENTS    3  3  3  3  3  3
TYPE ASSIGNMENTS      1  1  1  1  1  1  1  1  1  1  1  1  1  1  1  1  2  2  2  3
TYPE ASSIGNMENTS      3  3  4  4  4  2  3  4  2  3  4  2  3  4  5  6  7  8  9 10
TYPE ASSIGNMENTS      5  6  7  8  9 10  5  6  7  8  9 10 11 12 13 17 14 15 18 19
TYPE ASSIGNMENTS     16 20 11 12 13 17 14 15 18 19 16 20  1  1  1  1  1  1  2  3
TYPE ASSIGNMENTS      4  2  3  4  2  3  4  5  6  7  8  9 10  5  6  7  8  9 10  1
TYPE ASSIGNMENTS      1  1  1  1  1  2  3  4  2  3  4  2  3  4  5  6  7  8  9 10
TYPE ASSIGNMENTS      5  6  7  8  9 10
EXPONENTS  0.1533000D+05 0.2299000D+04 0.5224000D+03 0.1473000D+03 0.4755000D+02
EXPONENTS  0.1676000D+02 0.6207000D+01 0.5224000D+03 0.1473000D+03 0.4755000D+02
EXPONENTS  0.1676000D+02 0.6207000D+01 0.6882000D+00 0.1752000D+01 0.2384000D+00
EXPONENTS  0.7376000D-01 0.3446000D+02 0.7749000D+01 0.2280000D+01 0.3446000D+02
EXPONENTS  0.7749000D+01 0.2280000D+01 0.3446000D+02 0.7749000D+01 0.2280000D+01
EXPONENTS  0.7156000D+00 0.7156000D+00 0.7156000D+00 0.2140000D+00 0.2140000D+00
EXPONENTS  0.2140000D+00 0.5974000D-01 0.5974000D-01 0.5974000D-01 0.2314000D+01
EXPONENTS  0.2314000D+01 0.2314000D+01 0.2314000D+01 0.2314000D+01 0.2314000D+01
EXPONENTS  0.6450000D+00 0.6450000D+00 0.6450000D+00 0.6450000D+00 0.6450000D+00
EXPONENTS  0.6450000D+00 0.2140000D+00 0.2140000D+00 0.2140000D+00 0.2140000D+00
EXPONENTS  0.2140000D+00 0.2140000D+00 0.1428000D+01 0.1428000D+01 0.1428000D+01
EXPONENTS  0.1428000D+01 0.1428000D+01 0.1428000D+01 0.1428000D+01 0.1428000D+01
EXPONENTS  0.1428000D+01 0.1428000D+01 0.5000000D+00 0.5000000D+00 0.5000000D+00
EXPONENTS  0.5000000D+00 0.5000000D+00 0.5000000D+00 0.5000000D+00 0.5000000D+00
EXPONENTS  0.5000000D+00 0.5000000D+00 0.3387000D+02 0.5095000D+01 0.1159000D+01
EXPONENTS  0.3258000D+00 0.1027000D+00 0.2526000D-01 0.1407000D+01 0.1407000D+01
EXPONENTS  0.1407000D+01 0.3880000D+00 0.3880000D+00 0.3880000D+00 0.1020000D+00
EXPONENTS  0.1020000D+00 0.1020000D+00 0.1057000D+01 0.1057000D+01 0.1057000D+01
EXPONENTS  0.1057000D+01 0.1057000D+01 0.1057000D+01 0.2470000D+00 0.2470000D+00
EXPONENTS  0.2470000D+00 0.2470000D+00 0.2470000D+00 0.2470000D+00 0.3387000D+02
EXPONENTS  0.5095000D+01 0.1159000D+01 0.3258000D+00 0.1027000D+00 0.2526000D-01
EXPONENTS  0.1407000D+01 0.1407000D+01 0.1407000D+01 0.3880000D+00 0.3880000D+00
EXPONENTS  0.3880000D+00 0.1020000D+00 0.1020000D+00 0.1020000D+00 0.1057000D+01
EXPONENTS  0.1057000D+01 0.1057000D+01 0.1057000D+01 0.1057000D+01 0.1057000D+01
EXPONENTS  0.2470000D+00 0.2470000D+00 0.2470000D+00 0.2470000D+00 0.2470000D+00
EXPONENTS  0.2470000D+00
MO    1     MO 0.0        OCC NO =    2.0000000  ORB. ENERGY =    0.000000
 -0.19607135D-01 -0.36544476D-01 -0.61966295D-01 -0.93779398D-01 -0.11698241D+00
 -0.10038831D+00 -0.38443389D-01 -0.39372404D-03 -0.42244006D-02 -0.15571936D-01
 -0.45531428D-01 -0.54867584D-01  0.66093820D-01  0.39187159D-01  0.70339732D-01
  0.10788936D-01  0.17485593D+00  0.16955143D+00  0.11437839D+00  0.68875309D-01
  0.66785881D-01  0.45053361D-01  0.15937904D+01  0.15454405D+01  0.10425450D+01
  0.38339258D-01  0.16981863D-01  0.34645597D+00  0.52079336D-02  0.28989016D-02
  0.44003452D-01  0.12195448D-03  0.38129091D-04  0.87554775D-03  0.37982718D-01
  0.18753640D-02 -0.39858082D-01 -0.20888185D-03 -0.14943180D-01 -0.30309359D-02
  0.46142926D-02  0.73063380D-02 -0.11920631D-01 -0.19995077D-03 -0.32565856D-02
 -0.22308501D-02 -0.71311439D-03  0.13766736D-02 -0.66355918D-03 -0.41883675D-04
 -0.20451244D-04 -0.45055265D-03 -0.17053615D-02  0.65796009D-03  0.13931490D-02
  0.15843342D-02 -0.14391189D-02 -0.16974434D-01  0.35317502D-02 -0.53476134D-03
  0.12794987D-01  0.13364827D-03 -0.36850291D-04 -0.11865736D-03  0.56266361D-03
 -0.10202789D-03 -0.13456276D-03 -0.29750145D-03  0.21257876D-03  0.49053484D-03
 -0.13904894D-02  0.11923854D-03 -0.26014814D-01 -0.46918788D-01 -0.69181725D-01
 -0.56271509D-01 -0.11433769D-01 -0.15495118D-03  0.75442813D-03 -0.21292812D-01
  0.31142141D-02  0.31003924D-03 -0.12994445D-01  0.49049812D-03  0.12300047D-03
 -0.52251483D-03  0.94110013D-03  0.34335463D-02 -0.70421239D-02  0.36085776D-02
 -0.26427876D-03  0.20985422D-03 -0.60540991D-02  0.31238404D-03 -0.45488295D-03
  0.14249892D-03  0.31991806D-04 -0.14643160D-04  0.75815461D-04 -0.23877264D-01
 -0.43063629D-01 -0.63497296D-01 -0.54306853D-01 -0.10311285D-01 -0.15096281D-03
  0.86347342D-03  0.23174255D-01  0.38328323D-02  0.38196132D-03  0.13292958D-01
  0.10423073D-02  0.13467594D-03  0.47451903D-03  0.10455098D-02  0.34631158D-02
 -0.74584006D-02  0.39952847D-02  0.31013722D-03  0.29449675D-03  0.67579169D-02
  0.18013951D-03 -0.41233286D-03  0.23219335D-03 -0.60353526D-04  0.27128204D-04
 -0.37968465D-03
MO    2     MO 0.0        OCC NO =    2.0000000  ORB. ENERGY =    0.000000
  0.18376284D-01  0.34250371D-01  0.58076318D-01  0.87892331D-01  0.10963876D+00
  0.94086364D-01  0.36030079D-01  0.27708067D-03  0.29728938D-02  0.10958646D-01
  0.32042439D-01  0.38612697D-01 -0.46513085D-01 -0.25605265D-01 -0.18777994D-01
 -0.14022046D-02 -0.12043967D+00 -0.11678597D+00 -0.78783124D-01  0.14377393D+01
  0.13941235D+01  0.94046749D+00 -0.64775412D-01 -0.62810361D-01 -0.42371498D-01
 -0.26856673D-01  0.30201166D+00 -0.10514569D-01 -0.43525026D-02  0.29991960D-01
 -0.56972767D-03 -0.14067683D-03  0.31849662D-03 -0.59520706D-05  0.16010958D-02
 -0.36850763D-02  0.20839806D-02 -0.11449325D-01  0.46604520D-02 -0.13223121D+00
  0.14160183D-02 -0.18628887D-02  0.44687036D-03 -0.16668968D-02  0.10505383D-02
 -0.19821953D-01  0.21718378D-03 -0.19524754D-03 -0.21936242D-04  0.57914743D-04
  0.45231323D-04  0.56115184D-03  0.61077767D-03  0.69850932D-02 -0.47541324D-03
 -0.12608552D-02 -0.16240534D-01 -0.88763215D-03 -0.57147782D-03 -0.47147456D-02
  0.23138719D-02  0.20518239D-02  0.10647490D-04  0.13365546D-03 -0.89108480D-04
 -0.74387968D-05 -0.10651191D-02 -0.23371006D-03 -0.24503675D-04  0.66415276D-03
  0.50103550D-03  0.26333114D-03 -0.38311767D-01 -0.69096849D-01 -0.10188326D+00
 -0.65121486D-01 -0.74743224D-02  0.14942608D-03 -0.36221199D-02 -0.20680153D-01
 -0.25385481D-01 -0.16535304D-02 -0.65858531D-02 -0.10018800D-01 -0.14367017D-03
  0.34144144D-03 -0.19956818D-03  0.61950908D-02 -0.34615817D-02 -0.27335092D-02
 -0.23447812D-02 -0.20719738D-02 -0.18623190D-01  0.10625903D-03  0.10982363D-03
 -0.21608266D-03 -0.14603078D-03 -0.99097442D-04 -0.82136109D-03  0.34975566D-01
  0.63079873D-01  0.93011236D-01  0.68015538D-01  0.87041777D-02 -0.10661613D-03
  0.51403440D-03 -0.17939704D-01  0.24664512D-01  0.24301613D-04 -0.72743162D-02
  0.10470433D-01 -0.12311107D-03  0.31020188D-03  0.13850056D-03 -0.65892456D-02
  0.33301749D-02  0.32590707D-02 -0.86147649D-03  0.10928666D-02 -0.19379679D-01
 -0.41446822D-04 -0.20277504D-03  0.24422186D-03  0.39342758D-04 -0.48827102D-05
 -0.51296413D-03
MO    3     MO 0.0        OCC NO =    2.0000000  ORB. ENERGY =    0.000000
  0.44451510D-01  0.82850305D-01  0.14048434D+00  0.21260810D+00  0.26521185D+00
  0.22759122D+00  0.87155348D-01  0.10142224D-02  0.10881940D-01  0.40112881D-01
  0.11728771D+00  0.14133739D+00 -0.17025587D+00 -0.99321214D-01 -0.48651758D-01
 -0.30239385D-02  0.14351615D+01  0.13916239D+01  0.93878126D+00 -0.59741645D-01
 -0.57929300D-01 -0.39078763D-01 -0.10107364D+00 -0.98007434D-01 -0.66115236D-01
  0.32443535D+00 -0.11434109D-01 -0.20291752D-01  0.53554380D-01 -0.78659104D-03
 -0.61354725D-02  0.17460586D-02 -0.93165275D-05 -0.17781999D-03  0.83028086D-02
 -0.12868828D-01  0.45660194D-02  0.24298245D-02 -0.58157693D-01  0.68080512D-02
  0.23054833D-02 -0.31384846D-02  0.83300129D-03 -0.33099417D-03 -0.15551471D-01
  0.13690128D-03 -0.72448314D-04  0.44864550D-05  0.67961859D-04 -0.13707150D-03
 -0.10616707D-02 -0.13302447D-03 -0.86537595D-02 -0.10368126D-03 -0.19847549D-02
  0.18857930D-01  0.24377015D-03 -0.23865021D-03  0.71033481D-02  0.67273644D-04
  0.61929150D-02 -0.86395791D-03 -0.38560288D-03 -0.28139349D-04  0.86625001D-04
  0.60787493D-03 -0.26345455D-04  0.18320109D-04  0.54893371D-03  0.11076350D-03
 -0.27819511D-03  0.45652768D-03 -0.95748160D-02 -0.17268575D-01 -0.25462504D-01
 -0.53753209D-02  0.20255206D-02  0.46913531D-04  0.17444123D-01 -0.10544817D-01
 -0.94316201D-02  0.98486476D-02 -0.50278073D-03 -0.19629458D-02  0.15838894D-02
  0.23188183D-03 -0.88115017D-04  0.13949109D-02 -0.53917147D-03 -0.85573945D-03
  0.91413808D-02  0.63276895D-02 -0.37276596D-02  0.13503178D-04  0.56720720D-04
 -0.70223898D-04  0.95118991D-03  0.53301314D-03 -0.29885986D-04 -0.13476969D-01
 -0.24306269D-01 -0.35839579D-01 -0.11644198D-01  0.14638489D-02  0.59159644D-04
  0.18909093D-01  0.13451276D-01 -0.13113633D-01  0.10687818D-01  0.12934981D-02
 -0.29484433D-02  0.16873283D-02 -0.25801555D-03 -0.91909261D-04  0.23135348D-02
 -0.10887084D-02 -0.12248264D-02 -0.94447397D-02  0.69678083D-02  0.63849522D-02
  0.74638297D-05  0.65122430D-04 -0.72586259D-04 -0.10425659D-02  0.66592908D-03
  0.19566322D-04
MO    4     MO 0.0        OCC NO =    2.0000000  ORB. ENERGY =    0.000000
 -0.30359010D+00 -0.56584202D+00 -0.95946466D+00 -0.14520477D+01 -0.18113151D+01
 -0.15543778D+01 -0.59524413D+00 -0.12246349D-02 -0.13139529D-01 -0.48434779D-01
 -0.14162045D+00 -0.17065953D+00  0.20557749D+00  0.90365823D-01  0.55306516D-01
  0.32091706D-02  0.90721488D+00  0.87969326D+00  0.59343588D+00  0.21146142D+00
  0.20504645D+00  0.13832312D+00 -0.15555159D+00 -0.15083272D+00 -0.10175086D+00
  0.20469023D+00  0.42541454D-01 -0.38171782D-01  0.34270313D-01  0.36435954D-02
 -0.24370232D-02  0.11155382D-02  0.36030938D-04 -0.86250940D-04 -0.18984094D-01
  0.14199725D-01  0.47843686D-02 -0.61213862D-03 -0.32573592D-01 -0.20953825D-01
 -0.53310310D-02  0.36083120D-02  0.17227191D-02 -0.36741611D-03 -0.85387813D-02
 -0.17421529D-02 -0.64079311D-04 -0.36496372D-04  0.10057568D-03 -0.56069692D-04
 -0.66399178D-03  0.28163660D-03 -0.49427576D-02  0.79981989D-03  0.10121948D-02
  0.10870386D-01 -0.17520637D-02  0.65041785D-02  0.39578867D-02 -0.64739598D-03
 -0.95407630D-02 -0.34084898D-03 -0.20851959D-03  0.45482824D-04 -0.13878295D-03
  0.40077033D-03  0.17049320D-06  0.43939698D-03  0.22478844D-03 -0.13661897D-03
 -0.23048125D-04  0.25243043D-03  0.87235170D-02  0.15733222D-01  0.23198627D-01
  0.17406841D-02 -0.28787796D-02 -0.41630320D-04  0.12144487D-01  0.11465336D-01
  0.59529223D-02  0.63698676D-02  0.39735463D-03 -0.18826508D-03  0.99879018D-03
 -0.23259021D-03 -0.18528439D-03 -0.45066053D-03  0.84133441D-03 -0.39067387D-03
  0.62182714D-02  0.42916842D-02  0.21886846D-02  0.70603363D-04 -0.46362920D-04
 -0.24240442D-04  0.59156557D-03  0.33268229D-03 -0.19301690D-03  0.20576110D-01
  0.37109861D-01  0.54718468D-01  0.22905348D-01 -0.45814622D-03 -0.75157567D-04
  0.14076982D-01 -0.19183604D-01  0.15287430D-01  0.72399149D-02 -0.30555975D-02
  0.31031813D-02  0.10682857D-02  0.29468265D-03 -0.14610072D-03 -0.29153585D-02
  0.23752914D-02  0.54006709D-03 -0.72026427D-02  0.54259083D-02 -0.97477270D-02
  0.79518812D-04 -0.77694811D-04 -0.18240004D-05 -0.65954701D-03  0.41934563D-03
  0.72563871D-04
MO    5     MO 0.0        OCC NO =    2.0000000  ORB. ENERGY =    0.000000
  0.40543133D+00  0.75565734D+00  0.12813232D+01  0.19391464D+01  0.24189323D+01
  0.20758038D+01  0.79492258D+00 -0.53896226D-03 -0.57827114D-02 -0.21316163D-01
 -0.62327210D-01 -0.75107319D-01  0.90474725D-01  0.10363161D+00  0.26873931D-01
  0.15516874D-02  0.52940917D+00  0.51334881D+00  0.34630208D+00  0.10062933D+00
  0.97576601D-01  0.65824599D-01 -0.10125157D+00 -0.98179961D-01 -0.66231622D-01
  0.11961768D+00  0.21178348D-01 -0.22655742D-01  0.20002555D-01  0.20756141D-02
 -0.17681343D-02  0.65103278D-03  0.28744515D-04 -0.62460805D-04 -0.12217258D-01
  0.93161851D-02  0.29010732D-02 -0.25918183D-03 -0.18829443D-01 -0.11092131D-01
 -0.24257023D-02  0.13270843D-02  0.10986180D-02 -0.24222804D-03 -0.50942705D-02
 -0.13397145D-02  0.22803334D-04 -0.90186954D-04  0.67383620D-04 -0.40760651D-04
 -0.39701442D-03  0.71193560D-04 -0.28234945D-02  0.35461585D-03  0.87864032D-03
  0.62153046D-02 -0.13137231D-02  0.45635508D-02  0.22551790D-02  0.24987555D-03
 -0.71994718D-02 -0.41318807D-04 -0.15022469D-03  0.34763667D-04 -0.23227628D-03
  0.30113662D-03  0.31974804D-05 -0.72083800D-04  0.14953743D-03 -0.10748848D-03
  0.76891265D-03  0.14226878D-03  0.44546669D-02  0.80341752D-02  0.11846387D-01
  0.15744223D-02 -0.12859298D-02 -0.11554202D-04  0.70600901D-02  0.57927141D-02
  0.30269713D-02  0.37220859D-02  0.19293173D-03 -0.12500042D-03  0.58294196D-03
 -0.11339771D-03 -0.11857439D-03  0.44449809D-03 -0.22754499D-03 -0.21695311D-03
  0.34716591D-02  0.23886627D-02 -0.62874342D-03  0.33537041D-04 -0.16443789D-04
 -0.17093253D-04  0.34630184D-03  0.19528945D-03 -0.10678485D-03  0.10145196D-01
  0.18297279D-01  0.26979327D-01  0.10473768D-01 -0.54554058D-03 -0.42080839D-04
  0.80581917D-02 -0.87687415D-02  0.69448641D-02  0.41535831D-02 -0.74782439D-03
  0.89722602D-03  0.61912722D-03  0.21948733D-03 -0.14759476D-03 -0.23595581D-03
  0.10284665D-03  0.13310916D-03 -0.38554375D-02  0.28873197D-02 -0.15480932D-02
  0.58536155D-04 -0.55052727D-04 -0.34834275D-05 -0.37979989D-03  0.24262637D-03
  0.10939449D-03
END DATA
 TOTAL ENERGY =    -76.464602682364 THE VIRIAL(-V/T)=   2.00696610
