 40
GAUSSIAN              5 MOL ORBITALS    126 PRIMITIVES        3 NUCLEI   B3LYP   B3LYP   B3LYP
  O    1    (CENTRE  1)  -0.09448631  0.00000000  0.00815606  CHARGE =  8.0
  H    2    (CENTRE  2)   0.00000000 -1.53704465 -1.09730160  CHARGE =  1.0
  H    3    (CENTRE  3)   0.00000000  1.44255835 -1.09730160  CHARGE =  1.0
CENTRE ASSIGNMENTS    1  1  1  1  1  1  1  1  1  1  1  1  1  1  1  1  1  1  1  1
CENTRE ASSIGNMENTS    1  1  1  1  1  1  1  1  1  1  1  1  1  1  1  1  1  1  1  1
CENTRE ASSIGNMENTS    1  1  1  1  1  1  1  1  1  1  1  1  1  1  1  1  1  1  1  1
CENTRE ASSIGNMENTS    1  1  1  1  1  1  1  1  1  1  1  1  2  2  2  2  2  2  2  2
CENTRE ASSIGNMENTS    2  2  2  2  2  2  2  2  2  2  2  2  2  2  2  2  2  2  2  3
CENTRE ASSIGNMENTS    3  3  3  3  3  3  3  3  3  3  3  3  3  3  3  3  3  3  3  3
CENTRE ASSIGNMENTS    3  3  3  3  3  3
TYPE ASSIGNMENTS      1  1  1  1  1  1  1  1  1  1  1  1  1  1  1  1  2  2  2  3
TYPE ASSIGNMENTS      3  3  4  4  4  2  3  4  2  3  4  2  3  4  5  6  7  8  9 10
TYPE ASSIGNMENTS      5  6  7  8  9 10  5  6  7  8  9 10 11 12 13 17 14 15 18 19
TYPE ASSIGNMENTS     16 20 11 12 13 17 14 15 18 19 16 20  1  1  1  1  1  1  2  3
TYPE ASSIGNMENTS      4  2  3  4  2  3  4  5  6  7  8  9 10  5  6  7  8  9 10  1
TYPE ASSIGNMENTS      1  1  1  1  1  2  3  4  2  3  4  2  3  4  5  6  7  8  9 10
TYPE ASSIGNMENTS      5  6  7  8  9 10
EXPONENTS  0.1533000D+05 0.2299000D+04 0.5224000D+03 0.1473000D+03 0.4755000D+02
EXPONENTS  0.1676000D+02 0.6207000D+01 0.5224000D+03 0.1473000D+03 0.4755000D+02
EXPONENTS  0.1676000D+02 0.6207000D+01 0.6882000D+00 0.1752000D+01 0.2384000D+00
EXPONENTS  0.7376000D-01 0.3446000D+02 0.7749000D+01 0.2280000D+01 0.3446000D+02
EXPONENTS  0.7749000D+01 0.2280000D+01 0.3446000D+02 0.7749000D+01 0.2280000D+01
EXPONENTS  0.7156000D+00 0.7156000D+00 0.7156000D+00 0.2140000D+00 0.2140000D+00
EXPONENTS  0.2140000D+00 0.5974000D-01 0.5974000D-01 0.5974000D-01 0.2314000D+01
EXPONENTS  0.2314000D+01 0.2314000D+01 0.2314000D+01 0.2314000D+01 0.2314000D+01
EXPONENTS  0.6450000D+00 0.6450000D+00 0.6450000D+00 0.6450000D+00 0.6450000D+00
EXPONENTS  0.6450000D+00 0.2140000D+00 0.2140000D+00 0.2140000D+00 0.2140000D+00
EXPONENTS  0.2140000D+00 0.2140000D+00 0.1428000D+01 0.1428000D+01 0.1428000D+01
EXPONENTS  0.1428000D+01 0.1428000D+01 0.1428000D+01 0.1428000D+01 0.1428000D+01
EXPONENTS  0.1428000D+01 0.1428000D+01 0.5000000D+00 0.5000000D+00 0.5000000D+00
EXPONENTS  0.5000000D+00 0.5000000D+00 0.5000000D+00 0.5000000D+00 0.5000000D+00
EXPONENTS  0.5000000D+00 0.5000000D+00 0.3387000D+02 0.5095000D+01 0.1159000D+01
EXPONENTS  0.3258000D+00 0.1027000D+00 0.2526000D-01 0.1407000D+01 0.1407000D+01
EXPONENTS  0.1407000D+01 0.3880000D+00 0.3880000D+00 0.3880000D+00 0.1020000D+00
EXPONENTS  0.1020000D+00 0.1020000D+00 0.1057000D+01 0.1057000D+01 0.1057000D+01
EXPONENTS  0.1057000D+01 0.1057000D+01 0.1057000D+01 0.2470000D+00 0.2470000D+00
EXPONENTS  0.2470000D+00 0.2470000D+00 0.2470000D+00 0.2470000D+00 0.3387000D+02
EXPONENTS  0.5095000D+01 0.1159000D+01 0.3258000D+00 0.1027000D+00 0.2526000D-01
EXPONENTS  0.1407000D+01 0.1407000D+01 0.1407000D+01 0.3880000D+00 0.3880000D+00
EXPONENTS  0.3880000D+00 0.1020000D+00 0.1020000D+00 0.1020000D+00 0.1057000D+01
EXPONENTS  0.1057000D+01 0.1057000D+01 0.1057000D+01 0.1057000D+01 0.1057000D+01
EXPONENTS  0.2470000D+00 0.2470000D+00 0.2470000D+00 0.2470000D+00 0.2470000D+00
EXPONENTS  0.2470000D+00
MO    1     MO 0.0        OCC NO =    2.0000000  ORB. ENERGY =    0.000000
 -0.96360984D-02 -0.17960103D-01 -0.30453879D-01 -0.46088707D-01 -0.57492029D-01
 -0.49336714D-01 -0.18893341D-01 -0.44931800D-03 -0.48208873D-02 -0.17770698D-01
 -0.51960480D-01 -0.62614904D-01  0.75426288D-01  0.46098662D-01  0.72971292D-01
  0.10939913D-01 -0.18124910D+00 -0.17575066D+00 -0.11856036D+00  0.70573689D-01
  0.68432739D-01  0.46164322D-01  0.15885144D+01  0.15403247D+01  0.10390939D+01
 -0.39776440D-01  0.17292076D-01  0.34518102D+00 -0.54619609D-02  0.29133509D-02
  0.43976207D-01 -0.13021104D-03  0.38504057D-04  0.87446570D-03  0.37081328D-01
  0.26576094D-02 -0.39738938D-01  0.22329120D-03  0.15040010D-01 -0.33022084D-02
  0.44004801D-02  0.74617068D-02 -0.11862187D-01  0.20090110D-03  0.32822240D-02
 -0.22229546D-02 -0.71206004D-03  0.13722687D-02 -0.66020863D-03  0.41882853D-04
  0.25204824D-04 -0.44357411D-03  0.17220264D-02  0.65449269D-03  0.14757256D-02
 -0.16260338D-02 -0.14477828D-02 -0.16693436D-01 -0.35400455D-02 -0.51569524D-03
  0.12266260D-01 -0.13447662D-03  0.38303075D-04 -0.11668527D-03  0.55047592D-03
  0.96269570D-04 -0.12946569D-03 -0.29326553D-03 -0.21117880D-03  0.47952150D-03
 -0.13581622D-02 -0.11851587D-03 -0.25377283D-01 -0.45768975D-01 -0.67486327D-01
 -0.55772265D-01 -0.11515394D-01 -0.15725652D-03 -0.88059248D-03 -0.20627982D-01
  0.35781192D-02 -0.36340119D-03 -0.12933532D-01  0.55934556D-03 -0.13008408D-03
 -0.53495085D-03  0.93571695D-03  0.33900126D-02 -0.70084848D-02  0.36184722D-02
  0.20611151D-03 -0.25088631D-03 -0.58981743D-02  0.31360880D-03 -0.45716371D-03
  0.14355491D-03 -0.36279012D-04  0.12077305D-04  0.73085679D-04 -0.23101110D-01
 -0.41663803D-01 -0.61433253D-01 -0.53626813D-01 -0.10390023D-01 -0.15402387D-03
 -0.10093341D-02  0.22399013D-01  0.44284746D-02 -0.44103428D-03  0.13217780D-01
  0.11267639D-02 -0.14208429D-03  0.48955511D-03  0.10381702D-02  0.33968514D-02
 -0.74092890D-02  0.40124377D-02 -0.24298589D-03 -0.34477918D-03  0.65263079D-02
  0.18324875D-03 -0.41537263D-03  0.23212388D-03  0.64693220D-04 -0.29802630D-04
 -0.37254514D-03
MO    2     MO 0.0        OCC NO =    2.0000000  ORB. ENERGY =    0.000000
 -0.20648854D-01 -0.38486069D-01 -0.65258539D-01 -0.98761859D-01 -0.12319763D+00
 -0.10572190D+00 -0.40485871D-01  0.16414024D-03  0.17611171D-02  0.64918093D-02
  0.18981669D-01  0.22873835D-01 -0.27553958D-01 -0.18579189D-01 -0.13545545D-01
 -0.10771338D-02 -0.91040990D-03 -0.88279136D-03 -0.59552584D-03  0.14496127D+01
  0.14056367D+01  0.94823422D+00 -0.76611761D-01 -0.74287638D-01 -0.50114001D-01
 -0.52620708D-03  0.30432536D+00 -0.13555571D-01 -0.21317845D-03  0.30168050D-01
 -0.77441453D-03 -0.78244390D-05  0.31998075D-03 -0.14903355D-04 -0.62450710D-04
 -0.24465407D-02  0.25089914D-02  0.11394985D-01 -0.14602123D-03 -0.13342863D+00
  0.90679754D-03 -0.15012158D-02  0.59441823D-03  0.17002910D-02  0.13286958D-03
 -0.19872821D-01  0.20451515D-03 -0.19192789D-03 -0.12587259D-04 -0.49199678D-04
  0.43007702D-04  0.58382290D-03  0.69005507D-04  0.70239488D-02 -0.40429717D-03
 -0.22288128D-03 -0.16311471D-01 -0.28624802D-03  0.15864755D-04 -0.47603755D-02
  0.14991395D-02 -0.19855739D-02  0.17742588D-04  0.13641982D-03 -0.97089898D-04
 -0.43799705D-04 -0.10591705D-02 -0.18290355D-03 -0.94280595D-05  0.64991103D-03
  0.47417325D-03 -0.29654130D-03 -0.37422372D-01 -0.67492789D-01 -0.99518079D-01
 -0.64819799D-01 -0.77294365D-02  0.14432284D-03  0.20224065D-02 -0.19621190D-01
 -0.24765336D-01  0.80368609D-03 -0.65555127D-02 -0.10007498D-01  0.10167381D-04
  0.31746210D-03 -0.21559006D-03  0.61358431D-02 -0.33762771D-02 -0.27595660D-02
  0.15187831D-02  0.14971444D-02 -0.18339158D-01  0.11426850D-03  0.10367321D-03
 -0.21794170D-03  0.66476111D-04  0.54402732D-04 -0.83626372D-03  0.36561037D-01
  0.65939336D-01  0.97227513D-01  0.69570234D-01  0.85961543D-02 -0.11310614D-03
 -0.23151414D-02 -0.19503670D-01  0.25876258D-01 -0.96968076D-03 -0.74868360D-02
  0.10683876D-01 -0.19430614D-04  0.33467630D-03  0.12535099D-03 -0.68128567D-02
  0.35257387D-02  0.32871179D-02  0.17761570D-02 -0.17783631D-02 -0.20175202D-01
 -0.32411325D-04 -0.20952207D-03  0.24193339D-03  0.48394739D-04 -0.50772093D-04
 -0.50407002D-03
MO    3     MO 0.0        OCC NO =    2.0000000  ORB. ENERGY =    0.000000
  0.42604844D+00  0.79408424D+00  0.13464814D+01  0.20377564D+01  0.25419405D+01
  0.21813632D+01  0.83534621D+00  0.12334138D-02  0.13233721D-01  0.48781988D-01
  0.14263567D+00  0.17188292D+00 -0.20705119D+00 -0.76669837D-01 -0.56137871D-01
 -0.33308910D-02  0.56805690D-01  0.55082411D-01  0.37158269D-01 -0.28870717D-01
 -0.27994884D-01 -0.18885183D-01  0.58782939D-01  0.56999677D-01  0.38451646D-01
  0.12499447D-01 -0.40367438D-02  0.17181740D-01  0.23742064D-02  0.21515560D-03
 -0.68137716D-03  0.76418770D-04  0.67162609D-05 -0.11609979D-04  0.14925176D-01
 -0.13624455D-01 -0.13007213D-02 -0.24050131D-03  0.33259641D-03  0.37454749D-02
  0.46167721D-02 -0.38546041D-02 -0.76216809D-03  0.56814062D-04  0.27107604D-03
 -0.83664789D-03  0.53152848D-04 -0.12606627D-04 -0.40546221D-04  0.12629792D-04
 -0.30398818D-04 -0.21068099D-03 -0.18461740D-04  0.72612019D-04 -0.12963628D-02
  0.10489310D-03 -0.44049305D-03 -0.40689887D-02 -0.49507878D-04  0.22265699D-03
  0.79580771D-02 -0.14967193D-03  0.19557509D-04 -0.24004815D-04  0.57383627D-04
  0.62304575D-05 -0.10892200D-03 -0.41589198D-03 -0.64902983D-04  0.18093644D-03
  0.24374110D-03 -0.31393580D-04 -0.12957080D-01 -0.23368627D-01 -0.34457026D-01
 -0.92238320D-02  0.19500996D-02  0.61422326D-04  0.16138307D-02 -0.13466755D-01
 -0.97371799D-02  0.56061095D-03 -0.11280529D-02 -0.15412446D-02  0.62460431D-04
  0.26941048D-03  0.66545040D-04  0.16546411D-02 -0.13531744D-02 -0.30146672D-03
  0.85180827D-03  0.62440862D-03 -0.52268300D-02 -0.30990724D-04  0.62062114D-04
 -0.31071389D-04  0.37714818D-04  0.23456116D-04  0.36477444D-04 -0.15450775D-01
 -0.27866110D-01 -0.41088563D-01 -0.13686282D-01  0.14868001D-02  0.59040756D-04
  0.19566198D-02  0.16363442D-01 -0.12855902D-01  0.67291574D-03  0.21694536D-02
 -0.23926368D-02  0.68039096D-04 -0.23142801D-03  0.53281074D-04  0.26315132D-02
 -0.20985545D-02 -0.53295866D-03 -0.11326457D-02  0.86942308D-03  0.82465040D-02
 -0.45922265D-04  0.48298460D-04 -0.23761941D-05 -0.39289523D-04  0.21604568D-04
 -0.63491523D-04
MO    4     MO 0.0        OCC NO =    2.0000000  ORB. ENERGY =    0.000000
  0.20547874D+00  0.38297859D+00  0.64939402D+00  0.98278880D+00  0.12259516D+01
  0.10520488D+01  0.40287881D+00 -0.91615249D-03 -0.98297150D-02 -0.36234180D-01
 -0.10594662D+00 -0.12767083D+00  0.15379304D+00  0.11882471D+00  0.43162705D-01
  0.24536394D-02  0.11354118D+01  0.11009675D+01  0.74270615D+00  0.12300783D+00
  0.11927622D+00  0.80463032D-01  0.11007659D-01  0.10673726D-01  0.72004327D-02
  0.25658859D+00  0.25115482D-01  0.14676528D-02  0.42269381D-01  0.22343293D-02
  0.34359023D-02  0.13768533D-02  0.27966546D-04  0.10945539D-03 -0.11138188D-01
  0.13114245D-01 -0.19760569D-02  0.25819882D-02 -0.46844834D-01 -0.13191850D-01
 -0.23961702D-02  0.24706145D-02 -0.74444304D-04 -0.16489662D-03 -0.12440102D-01
 -0.12264770D-02  0.11437388D-03 -0.91971024D-04 -0.22402855D-04 -0.11100658D-03
 -0.83106487D-03  0.14126627D-03 -0.69556949D-02  0.39825862D-03  0.19097442D-02
  0.15074410D-01 -0.11828754D-02  0.18611023D-02  0.57926744D-02 -0.11900501D-04
 -0.75903350D-02 -0.85770550D-03 -0.29448718D-03  0.42892511D-04 -0.18531802D-03
  0.43937276D-03 -0.15090717D-04 -0.11989825D-03  0.44408876D-03 -0.11358682D-03
  0.67585230D-03  0.35769125D-03  0.82551611D-02  0.14888523D-01  0.21953119D-01
  0.41964520D-02 -0.18601865D-02 -0.28516208D-04  0.13722184D-01  0.98747033D-02
  0.75088635D-02  0.77778049D-02  0.59652218D-03  0.12367388D-02  0.12516042D-02
 -0.18747855D-03  0.10904316D-04 -0.77083984D-03  0.29944051D-03  0.47139933D-03
  0.72752789D-02  0.50713769D-02  0.19923810D-02 -0.11980255D-04 -0.30902989D-04
  0.42883244D-04  0.75329649D-03  0.42141240D-03 -0.30980987D-04  0.15406334D-01
  0.27785958D-01  0.40970379D-01  0.15907972D-01 -0.77665660D-03 -0.59011100D-04
  0.14644010D-01 -0.14225878D-01  0.13111733D-01  0.83643674D-02 -0.17002925D-02
  0.28771112D-02  0.13338102D-02  0.27921466D-03  0.46363936D-05 -0.20233295D-02
  0.97993005D-03  0.10433995D-02 -0.73751459D-02  0.54355363D-02 -0.57087308D-02
  0.18840368D-05 -0.65812004D-04  0.63927967D-04 -0.82316415D-03  0.52428859D-03
  0.15048395D-04
MO    5     MO 0.0        OCC NO =    2.0000000  ORB. ENERGY =    0.000000
 -0.18703357D+00 -0.34859983D+00 -0.59109999D+00 -0.89456698D+00 -0.11159018D+01
 -0.95760976D+00 -0.36671366D+00  0.67909983D-03  0.72862955D-02  0.26858657D-01
  0.78533138D-01  0.94636250D-01 -0.11399939D+00 -0.92160789D-01 -0.30422565D-01
 -0.15036387D-02  0.13721672D+01  0.13305407D+01  0.89757487D+00 -0.89035714D-01
 -0.86334693D-01 -0.58240874D-01  0.23707288D+00  0.22988095D+00  0.15507633D+00
  0.30996706D+00 -0.18122808D-01  0.53789984D-01  0.51637963D-01 -0.15768884D-02
  0.60466150D-02  0.16831730D-02 -0.20192209D-04  0.18042219D-03  0.17378011D-01
 -0.10023441D-01 -0.73545704D-02  0.92550841D-03 -0.51206935D-01  0.10028485D-01
  0.39589465D-02 -0.16098003D-02 -0.23491462D-02 -0.39997746D-03 -0.13667455D-01
  0.81265491D-03  0.28517939D-04  0.11942482D-03 -0.14794276D-03 -0.10975174D-03
 -0.10168758D-02 -0.13424784D-03 -0.76954314D-02 -0.26935734D-03 -0.48350737D-03
  0.16928503D-01  0.96314301D-03 -0.73029756D-02  0.61577916D-02 -0.15507098D-03
  0.87534977D-02 -0.61114933D-03 -0.35682160D-03 -0.37020982D-04  0.23486527D-03
  0.65345512D-03 -0.50940744D-04 -0.18689249D-03  0.41700967D-03  0.16200369D-03
 -0.51770333D-03  0.38082650D-03 -0.71908883D-02 -0.12969063D-01 -0.19122876D-01
 -0.51819182D-02  0.10142147D-02  0.16152770D-04  0.17876001D-01 -0.82393697D-02
 -0.32180379D-02  0.96264623D-02 -0.89309401D-03  0.39157298D-03  0.15147408D-02
  0.12508248D-03  0.23464640D-03 -0.20506875D-03 -0.43073382D-03  0.63580257D-03
  0.91568312D-02  0.63315004D-02 -0.39231448D-03 -0.51526198D-04  0.79621063D-05
  0.43564091D-04  0.90684742D-03  0.51157511D-03  0.15154135D-03 -0.12445545D-01
 -0.22446054D-01 -0.33096693D-01 -0.13749888D-01  0.27468898D-03  0.39895077D-04
  0.19924996D-01  0.11509588D-01 -0.71097735D-02  0.10606333D-01  0.16815228D-02
 -0.65356219D-03  0.16126620D-02 -0.19946405D-03  0.25976820D-03  0.58857678D-03
 -0.92902372D-03  0.34044694D-03 -0.98941627D-02  0.73502473D-02  0.30327990D-02
 -0.85032402D-04  0.36693937D-04  0.48338466D-04 -0.99283134D-03  0.63255699D-03
 -0.16665552D-03
END DATA
 TOTAL ENERGY =    -76.464602682365 THE VIRIAL(-V/T)=   2.00696610
