 41
GAUSSIAN              5 MOL ORBITALS    126 PRIMITIVES        3 NUCLEI   B3LYP   B3LYP   B3LYP
  O    1    (CENTRE  1)   0.00000000  0.09448631  0.00815606  CHARGE =  8.0
  H    2    (CENTRE  2)   0.00000000 -1.34807204 -1.09730160  CHARGE =  1.0
  H    3    (CENTRE  3)   0.00000000  1.44255835 -1.09730160  CHARGE =  1.0
CENTRE ASSIGNMENTS    1  1  1  1  1  1  1  1  1  1  1  1  1  1  1  1  1  1  1  1
CENTRE ASSIGNMENTS    1  1  1  1  1  1  1  1  1  1  1  1  1  1  1  1  1  1  1  1
CENTRE ASSIGNMENTS    1  1  1  1  1  1  1  1  1  1  1  1  1  1  1  1  1  1  1  1
CENTRE ASSIGNMENTS    1  1  1  1  1  1  1  1  1  1  1  1  2  2  2  2  2  2  2  2
CENTRE ASSIGNMENTS    2  2  2  2  2  2  2  2  2  2  2  2  2  2  2  2  2  2  2  3
CENTRE ASSIGNMENTS    3  3  3  3  3  3  3  3  3  3  3  3  3  3  3  3  3  3  3  3
CENTRE ASSIGNMENTS    3  3  3  3  3  3
TYPE ASSIGNMENTS      1  1  1  1  1  1  1  1  1  1  1  1  1  1  1  1  2  2  2  3
TYPE ASSIGNMENTS      3  3  4  4  4  2  3  4  2  3  4  2  3  4  5  6  7  8  9 10
TYPE ASSIGNMENTS      5  6  7  8  9 10  5  6  7  8  9 10 11 12 13 17 14 15 18 19
TYPE ASSIGNMENTS     16 20 11 12 13 17 14 15 18 19 16 20  1  1  1  1  1  1  2  3
TYPE ASSIGNMENTS      4  2  3  4  2  3  4  5  6  7  8  9 10  5  6  7  8  9 10  1
TYPE ASSIGNMENTS      1  1  1  1  1  2  3  4  2  3  4  2  3  4  5  6  7  8  9 10
TYPE ASSIGNMENTS      5  6  7  8  9 10
EXPONENTS  0.1533000D+05 0.2299000D+04 0.5224000D+03 0.1473000D+03 0.4755000D+02
EXPONENTS  0.1676000D+02 0.6207000D+01 0.5224000D+03 0.1473000D+03 0.4755000D+02
EXPONENTS  0.1676000D+02 0.6207000D+01 0.6882000D+00 0.1752000D+01 0.2384000D+00
EXPONENTS  0.7376000D-01 0.3446000D+02 0.7749000D+01 0.2280000D+01 0.3446000D+02
EXPONENTS  0.7749000D+01 0.2280000D+01 0.3446000D+02 0.7749000D+01 0.2280000D+01
EXPONENTS  0.7156000D+00 0.7156000D+00 0.7156000D+00 0.2140000D+00 0.2140000D+00
EXPONENTS  0.2140000D+00 0.5974000D-01 0.5974000D-01 0.5974000D-01 0.2314000D+01
EXPONENTS  0.2314000D+01 0.2314000D+01 0.2314000D+01 0.2314000D+01 0.2314000D+01
EXPONENTS  0.6450000D+00 0.6450000D+00 0.6450000D+00 0.6450000D+00 0.6450000D+00
EXPONENTS  0.6450000D+00 0.2140000D+00 0.2140000D+00 0.2140000D+00 0.2140000D+00
EXPONENTS  0.2140000D+00 0.2140000D+00 0.1428000D+01 0.1428000D+01 0.1428000D+01
EXPONENTS  0.1428000D+01 0.1428000D+01 0.1428000D+01 0.1428000D+01 0.1428000D+01
EXPONENTS  0.1428000D+01 0.1428000D+01 0.5000000D+00 0.5000000D+00 0.5000000D+00
EXPONENTS  0.5000000D+00 0.5000000D+00 0.5000000D+00 0.5000000D+00 0.5000000D+00
EXPONENTS  0.5000000D+00 0.5000000D+00 0.3387000D+02 0.5095000D+01 0.1159000D+01
EXPONENTS  0.3258000D+00 0.1027000D+00 0.2526000D-01 0.1407000D+01 0.1407000D+01
EXPONENTS  0.1407000D+01 0.3880000D+00 0.3880000D+00 0.3880000D+00 0.1020000D+00
EXPONENTS  0.1020000D+00 0.1020000D+00 0.1057000D+01 0.1057000D+01 0.1057000D+01
EXPONENTS  0.1057000D+01 0.1057000D+01 0.1057000D+01 0.2470000D+00 0.2470000D+00
EXPONENTS  0.2470000D+00 0.2470000D+00 0.2470000D+00 0.2470000D+00 0.3387000D+02
EXPONENTS  0.5095000D+01 0.1159000D+01 0.3258000D+00 0.1027000D+00 0.2526000D-01
EXPONENTS  0.1407000D+01 0.1407000D+01 0.1407000D+01 0.3880000D+00 0.3880000D+00
EXPONENTS  0.3880000D+00 0.1020000D+00 0.1020000D+00 0.1020000D+00 0.1057000D+01
EXPONENTS  0.1057000D+01 0.1057000D+01 0.1057000D+01 0.1057000D+01 0.1057000D+01
EXPONENTS  0.2470000D+00 0.2470000D+00 0.2470000D+00 0.2470000D+00 0.2470000D+00
EXPONENTS  0.2470000D+00
MO    1     MO 0.0        OCC NO =    2.0000000  ORB. ENERGY =    0.000000
 -0.17287898D+00 -0.32221799D+00 -0.54636588D+00 -0.82686667D+00 -0.10314510D+01
 -0.88513840D+00 -0.33896099D+00  0.25815660D-03  0.27698509D-02  0.10210192D-01
  0.29854002D-01  0.35975524D-01 -0.43336332D-01 -0.46362280D-01 -0.34198458D-02
  0.10911186D-02  0.97154305D-01  0.94206995D-01  0.63551482D-01  0.12848925D+01
  0.12459135D+01  0.84048591D+00  0.37841776D+00  0.36693794D+00  0.24753416D+00
  0.21922588D-01  0.26286683D+00  0.84616113D-01  0.35752648D-02  0.23921579D-01
  0.10415729D-01  0.11272046D-03  0.22138948D-03  0.20525554D-03  0.15466190D-01
 -0.50011803D-02 -0.10465009D-01  0.11785522D-03 -0.41499422D-02 -0.11988168D+00
  0.27503874D-02  0.44681006D-03 -0.31971974D-02 -0.36444019D-04 -0.10266259D-02
 -0.14374918D-01 -0.96257100D-04  0.30262512D-03 -0.20636802D-03 -0.87679369D-05
 -0.63450005D-04  0.10963465D-02 -0.58828054D-03  0.59844276D-02  0.14906403D-04
  0.11939630D-02 -0.12066336D-01 -0.64939435D-02  0.57087864D-03 -0.58869473D-02
  0.64492243D-02 -0.41207660D-04 -0.15548988D-04  0.44511285D-04  0.19779894D-03
  0.19782566D-04 -0.64424515D-03 -0.76240203D-04  0.26864397D-04  0.51071130D-03
 -0.51715661D-03  0.32761439D-04 -0.43305672D-01 -0.78103563D-01 -0.11516366D+00
 -0.77338556D-01 -0.93453990D-02  0.80922349D-04  0.13461781D-02 -0.28593494D-01
 -0.27330710D-01  0.72827608D-03 -0.10218971D-01 -0.10158557D-01  0.11193336D-03
  0.16380929D-03  0.81806946D-04  0.74708202D-02 -0.51175673D-02 -0.23532529D-02
  0.66854987D-03  0.48675563D-03 -0.21279443D-01  0.10525076D-03  0.35815426D-04
 -0.14106619D-03  0.69502877D-04  0.41682604D-04 -0.42413430D-03  0.22482141D-01
  0.40547467D-01  0.59787216D-01  0.46785672D-01  0.59361126D-02 -0.96783369D-04
  0.14777515D-02 -0.88940822D-02  0.24736846D-01  0.79768102D-03 -0.39003371D-02
  0.10600968D-01  0.11927930D-03  0.17066471D-03  0.48991185D-03 -0.57085353D-02
  0.88679450D-03  0.48217408D-02 -0.70872766D-03  0.55668161D-03 -0.18024279D-01
 -0.17708243D-04 -0.18348650D-03  0.20119474D-03 -0.75450302D-04  0.51252851D-04
 -0.52620588D-03
MO    2     MO 0.0        OCC NO =    2.0000000  ORB. ENERGY =    0.000000
  0.13091479D+00  0.24400363D+00  0.41374245D+00  0.62615520D+00  0.78107926D+00
  0.67028221D+00  0.25668248D+00 -0.50558100D-03 -0.54245524D-02 -0.19995921D-01
 -0.58466901D-01 -0.70455459D-01  0.84871067D-01  0.67969771D-01 -0.13243636D-01
 -0.44542233D-02 -0.45091308D+00 -0.43723401D+00 -0.29495548D+00  0.66530468D+00
  0.64512174D+00  0.43519532D+00 -0.10822071D+01 -0.10493768D+01 -0.70790342D+00
 -0.10174723D+00  0.13314942D+00 -0.23258856D+00 -0.16593538D-01  0.10739686D-01
 -0.24874349D-01 -0.52315881D-03  0.89072101D-04 -0.47957065D-03 -0.38355045D-01
  0.69081463D-02  0.31446899D-01 -0.54699028D-03  0.19260734D-01 -0.66467539D-01
 -0.51757106D-02 -0.36338248D-02  0.88095354D-02  0.16914418D-03  0.47647818D-02
 -0.55074134D-02  0.76835239D-03 -0.11062716D-02  0.33791920D-03  0.40693796D-04
  0.29448451D-03  0.10997869D-02  0.27303308D-02  0.27227397D-02 -0.64125530D-03
 -0.55414275D-02 -0.56528643D-02  0.15163681D-01 -0.26495650D-02 -0.25153548D-02
 -0.13239915D-01  0.19125321D-03  0.72166046D-04  0.16571538D-03 -0.67439389D-03
 -0.91814953D-04 -0.10538216D-03 -0.19405607D-03 -0.12468318D-03 -0.39176397D-03
  0.22172377D-02 -0.15205257D-03  0.86084341D-02  0.15525665D-01  0.22892584D-01
  0.10927078D-01  0.90160910D-03  0.93130405D-04 -0.62478892D-02  0.14975045D-01
 -0.67595657D-02 -0.33800788D-02  0.49138605D-02 -0.45441125D-02 -0.51950572D-03
  0.30321507D-04 -0.86404670D-03  0.95984263D-04  0.35309454D-02 -0.36269297D-02
 -0.31028773D-02 -0.22591329D-02 -0.32607662D-02  0.12766793D-04  0.95108708D-04
 -0.10787550D-03 -0.32257713D-03 -0.19345753D-03 -0.69791528D-03  0.44898379D-01
  0.80976076D-01  0.11939918D+00  0.79498943D-01  0.84026103D-02 -0.12214858D-04
 -0.68585482D-02 -0.38650584D-01  0.23388534D-01 -0.37022014D-02 -0.12683585D-01
  0.62906730D-02 -0.55359973D-03  0.23345703D-03 -0.76961303D-03 -0.72888203D-02
  0.71446145D-02  0.14420579D-03  0.32893506D-02 -0.25836737D-02 -0.19566728D-01
  0.95052225D-04 -0.67735008D-04 -0.27317217D-04  0.35018035D-03 -0.23787501D-03
  0.56911368D-03
MO    3     MO 0.0        OCC NO =    2.0000000  ORB. ENERGY =    0.000000
 -0.22985256D+00 -0.42840739D+00 -0.72642493D+00 -0.10993669D+01 -0.13713735D+01
 -0.11768425D+01 -0.45066816D+00 -0.65215352D-04 -0.69971793D-03 -0.25792920D-02
 -0.75416986D-02 -0.90881136D-02  0.10947596D-01 -0.20321050D-01 -0.25246941D-01
 -0.43857293D-02  0.13135781D+01  0.12737289D+01  0.85924996D+00 -0.12324598D+00
 -0.11950714D+00 -0.80618811D-01 -0.77880277D+00 -0.75517671D+00 -0.50943775D+00
  0.29640508D+00 -0.27218041D-01 -0.16834349D+00  0.48339488D-01 -0.33234209D-02
 -0.19479665D-01  0.15240408D-02 -0.42412446D-04 -0.37060040D-03 -0.21454230D-01
 -0.61287908D-03  0.22067109D-01  0.15934655D-02 -0.56109434D-01  0.10524251D-01
 -0.30196117D-02 -0.31312165D-02  0.61508281D-02 -0.49274259D-03 -0.13880531D-01
  0.25376568D-02  0.45073644D-03 -0.71549157D-03  0.26475513D-03 -0.11854719D-03
 -0.85787793D-03  0.19950124D-03 -0.79538669D-02 -0.68073646D-03 -0.12655199D-02
  0.16143017D-01  0.17312098D-02  0.89262139D-02  0.77185839D-02  0.31099955D-03
 -0.51296541D-02 -0.55714955D-03 -0.21023061D-03  0.56912644D-04 -0.28464841D-03
  0.26747085D-03  0.14023080D-03  0.16540325D-03  0.36322099D-03 -0.31096874D-03
  0.68854197D-03  0.44295214D-03  0.18120797D-01  0.32681604D-01  0.48189007D-01
  0.34817702D-01  0.50441122D-02  0.39091403D-04  0.18201047D-01  0.16276047D-01
  0.33923398D-02  0.98466812D-02  0.71873463D-02  0.10410835D-02  0.15133988D-02
  0.71743449D-04 -0.49913071D-03 -0.31572261D-02  0.45096736D-02 -0.13524474D-02
  0.90391510D-02  0.65811959D-02  0.71959073D-02 -0.61209839D-04  0.78286256D-04
 -0.17076416D-04  0.93971599D-03  0.56357105D-03 -0.17557048D-03  0.12780199D-01
  0.23049615D-01  0.33986645D-01  0.26112034D-01  0.36913700D-02  0.59478850D-04
  0.19979989D-01 -0.15304338D-01  0.17579296D-03  0.10785073D-01 -0.65933277D-02
 -0.45222466D-03  0.16127198D-02 -0.10750177D-03 -0.56240795D-03 -0.24849707D-02
  0.43991737D-02 -0.19142029D-02 -0.95823762D-02  0.75266325D-02 -0.55713804D-02
  0.95071629D-05  0.85693442D-04 -0.95200605D-04 -0.10201284D-02  0.69296590D-03
  0.40185224D-03
MO    4     MO 0.0        OCC NO =    2.0000000  ORB. ENERGY =    0.000000
  0.36265677D+00  0.67593259D+00  0.11461387D+01  0.17345590D+01  0.21637257D+01
  0.18567985D+01  0.71105520D+00  0.81466383D-04  0.87408083D-03  0.32220265D-02
  0.94210166D-02  0.11352783D-01 -0.13675630D-01  0.34362211D-01  0.10200969D-01
  0.19630531D-02  0.11141817D+01  0.10803815D+01  0.72881897D+00  0.29982735D+00
  0.29073168D+00  0.19612587D+00  0.34094182D+00  0.33059888D+00  0.22302005D+00
  0.25141188D+00  0.62642549D-01  0.74359034D-01  0.41001731D-01  0.61462579D-02
  0.86550356D-02  0.12926970D-02  0.66057979D-04  0.16302659D-03  0.83590019D-02
  0.11250802D-02 -0.94840821D-02  0.13515833D-02 -0.47592228D-01 -0.28591186D-01
  0.15361823D-02  0.11657224D-02 -0.27019048D-02 -0.41794607D-03 -0.11773517D-01
 -0.40435970D-02 -0.16176321D-03  0.28703739D-03 -0.12527417D-03 -0.10055216D-03
 -0.72765521D-03  0.11366481D-03 -0.67464991D-02  0.13879183D-02  0.84964646D-03
  0.13692566D-01 -0.33043726D-02 -0.32842049D-02  0.65469312D-02 -0.85938214D-03
  0.73526554D-03 -0.47257629D-03 -0.17831838D-03 -0.12866435D-05  0.45886832D-04
  0.22686976D-03 -0.16649984D-03 -0.26886675D-03  0.30808537D-03  0.17035977D-03
  0.13120626D-03  0.37571364D-03 -0.14700232D-01 -0.26512473D-01 -0.39092627D-01
 -0.27736360D-01 -0.37280596D-02  0.41051953D-05  0.15438195D-01 -0.11455355D-01
 -0.65925231D-02  0.83519912D-02 -0.48809618D-02 -0.25843020D-02  0.12836704D-02
 -0.12806007D-04  0.16759252D-03  0.31557094D-02 -0.31158134D-02 -0.39896061D-04
  0.76670411D-02  0.55821946D-02 -0.84212288D-02  0.47987327D-04 -0.22578091D-04
 -0.25409236D-04  0.79707055D-03  0.47802303D-03 -0.49382666D-04  0.33490256D-03
  0.60401055D-03  0.89061321D-03 -0.73236594D-03 -0.49590559D-03 -0.48298618D-04
  0.16947100D-01  0.41130127D-02  0.45263462D-02  0.91479386D-02  0.23199298D-02
  0.16912525D-02  0.13679148D-02  0.14374637D-03  0.23833612D-03  0.59472482D-03
 -0.20708573D-02  0.14761325D-02 -0.81278067D-02  0.63841173D-02  0.88162627D-03
  0.13506231D-04 -0.83935792D-04  0.70429560D-04 -0.86527662D-03  0.58777623D-03
 -0.17895287D-03
MO    5     MO 0.0        OCC NO =    2.0000000  ORB. ENERGY =    0.000000
 -0.16714016D+00 -0.31152178D+00 -0.52822896D+00 -0.79941837D+00 -0.99721140D+00
 -0.85575574D+00 -0.32770899D+00 -0.16400539D-02 -0.17596702D-01 -0.64864759D-01
 -0.18966075D+00 -0.22855042D+00  0.27531321D+00  0.14967693D+00  0.10265461D+00
  0.92709945D-02  0.15740764D+00  0.15263246D+00  0.10296496D+00  0.19013036D-01
  0.18436249D-01  0.12436985D-01  0.75219243D+00  0.72937364D+00  0.49203115D+00
  0.35518577D-01  0.29096887D-02  0.15999724D+00  0.57925789D-02  0.22937249D-03
  0.23611785D-01  0.18262764D-03  0.48682532D-05  0.43825810D-03  0.45080621D-03
  0.20026858D-01 -0.20477664D-01  0.19094688D-03 -0.67236609D-02 -0.18595658D-02
 -0.21987390D-02  0.71935642D-02 -0.49948253D-02 -0.59045937D-04 -0.16633207D-02
  0.54071077D-03 -0.35596711D-03  0.58325342D-03 -0.22728632D-03 -0.14205652D-04
 -0.10280054D-03  0.43822024D-05 -0.95312143D-03 -0.37397362D-04  0.27006314D-02
  0.19344371D-02  0.19654913D-03 -0.37968983D-02  0.92492718D-03 -0.84357040D-04
 -0.43049959D-02 -0.66763900D-04 -0.25192187D-04 -0.18594255D-04 -0.33569770D-05
  0.32051354D-04  0.10406080D-03  0.13982674D-04  0.43525207D-04 -0.48278037D-04
 -0.39117431D-05  0.53079488D-04  0.42223865D-02  0.76152479D-02  0.11228679D-01
 -0.15192958D-01 -0.73541929D-02 -0.13844169D-03  0.21810533D-02  0.58060336D-02
  0.15860001D-01  0.11799396D-02 -0.50462662D-02  0.28574564D-02  0.18135240D-03
 -0.52230512D-03  0.45335010D-03 -0.32598537D-03 -0.23053694D-02  0.26313548D-02
  0.10831723D-02  0.78863262D-03  0.33509214D-02  0.14274052D-03 -0.24314495D-03
  0.10040443D-03  0.11260730D-03  0.67533396D-04  0.77214391D-04  0.57182642D-02
  0.10313125D-01  0.15206697D-01 -0.13865410D-01 -0.68881389D-02 -0.12973699D-03
  0.23942261D-02 -0.66271020D-02  0.18225386D-01  0.12923883D-02  0.46742782D-02
  0.32799357D-02  0.19325415D-03  0.44305609D-03  0.49928557D-03 -0.82870290D-03
 -0.21339649D-02  0.29626678D-02 -0.11482677D-02  0.90192541D-03 -0.46732558D-02
  0.10827891D-03 -0.20177799D-03  0.93499083D-04 -0.12224321D-03  0.83038937D-04
 -0.13172358D-03
END DATA
 TOTAL ENERGY =    -76.464424752151 THE VIRIAL(-V/T)=   2.00483478
