 41
GAUSSIAN              5 MOL ORBITALS    126 PRIMITIVES        3 NUCLEI   B3LYP   B3LYP   B3LYP
  O    1    (CENTRE  1)   0.00000000  0.09448631  0.00815606  CHARGE =  8.0
  H    2    (CENTRE  2)   0.00000000 -1.53704465 -1.09730160  CHARGE =  1.0
  H    3    (CENTRE  3)   0.00000000  1.44255835 -1.09730160  CHARGE =  1.0
CENTRE ASSIGNMENTS    1  1  1  1  1  1  1  1  1  1  1  1  1  1  1  1  1  1  1  1
CENTRE ASSIGNMENTS    1  1  1  1  1  1  1  1  1  1  1  1  1  1  1  1  1  1  1  1
CENTRE ASSIGNMENTS    1  1  1  1  1  1  1  1  1  1  1  1  1  1  1  1  1  1  1  1
CENTRE ASSIGNMENTS    1  1  1  1  1  1  1  1  1  1  1  1  2  2  2  2  2  2  2  2
CENTRE ASSIGNMENTS    2  2  2  2  2  2  2  2  2  2  2  2  2  2  2  2  2  2  2  3
CENTRE ASSIGNMENTS    3  3  3  3  3  3  3  3  3  3  3  3  3  3  3  3  3  3  3  3
CENTRE ASSIGNMENTS    3  3  3  3  3  3
TYPE ASSIGNMENTS      1  1  1  1  1  1  1  1  1  1  1  1  1  1  1  1  2  2  2  3
TYPE ASSIGNMENTS      3  3  4  4  4  2  3  4  2  3  4  2  3  4  5  6  7  8  9 10
TYPE ASSIGNMENTS      5  6  7  8  9 10  5  6  7  8  9 10 11 12 13 17 14 15 18 19
TYPE ASSIGNMENTS     16 20 11 12 13 17 14 15 18 19 16 20  1  1  1  1  1  1  2  3
TYPE ASSIGNMENTS      4  2  3  4  2  3  4  5  6  7  8  9 10  5  6  7  8  9 10  1
TYPE ASSIGNMENTS      1  1  1  1  1  2  3  4  2  3  4  2  3  4  5  6  7  8  9 10
TYPE ASSIGNMENTS      5  6  7  8  9 10
EXPONENTS  0.1533000D+05 0.2299000D+04 0.5224000D+03 0.1473000D+03 0.4755000D+02
EXPONENTS  0.1676000D+02 0.6207000D+01 0.5224000D+03 0.1473000D+03 0.4755000D+02
EXPONENTS  0.1676000D+02 0.6207000D+01 0.6882000D+00 0.1752000D+01 0.2384000D+00
EXPONENTS  0.7376000D-01 0.3446000D+02 0.7749000D+01 0.2280000D+01 0.3446000D+02
EXPONENTS  0.7749000D+01 0.2280000D+01 0.3446000D+02 0.7749000D+01 0.2280000D+01
EXPONENTS  0.7156000D+00 0.7156000D+00 0.7156000D+00 0.2140000D+00 0.2140000D+00
EXPONENTS  0.2140000D+00 0.5974000D-01 0.5974000D-01 0.5974000D-01 0.2314000D+01
EXPONENTS  0.2314000D+01 0.2314000D+01 0.2314000D+01 0.2314000D+01 0.2314000D+01
EXPONENTS  0.6450000D+00 0.6450000D+00 0.6450000D+00 0.6450000D+00 0.6450000D+00
EXPONENTS  0.6450000D+00 0.2140000D+00 0.2140000D+00 0.2140000D+00 0.2140000D+00
EXPONENTS  0.2140000D+00 0.2140000D+00 0.1428000D+01 0.1428000D+01 0.1428000D+01
EXPONENTS  0.1428000D+01 0.1428000D+01 0.1428000D+01 0.1428000D+01 0.1428000D+01
EXPONENTS  0.1428000D+01 0.1428000D+01 0.5000000D+00 0.5000000D+00 0.5000000D+00
EXPONENTS  0.5000000D+00 0.5000000D+00 0.5000000D+00 0.5000000D+00 0.5000000D+00
EXPONENTS  0.5000000D+00 0.5000000D+00 0.3387000D+02 0.5095000D+01 0.1159000D+01
EXPONENTS  0.3258000D+00 0.1027000D+00 0.2526000D-01 0.1407000D+01 0.1407000D+01
EXPONENTS  0.1407000D+01 0.3880000D+00 0.3880000D+00 0.3880000D+00 0.1020000D+00
EXPONENTS  0.1020000D+00 0.1020000D+00 0.1057000D+01 0.1057000D+01 0.1057000D+01
EXPONENTS  0.1057000D+01 0.1057000D+01 0.1057000D+01 0.2470000D+00 0.2470000D+00
EXPONENTS  0.2470000D+00 0.2470000D+00 0.2470000D+00 0.2470000D+00 0.3387000D+02
EXPONENTS  0.5095000D+01 0.1159000D+01 0.3258000D+00 0.1027000D+00 0.2526000D-01
EXPONENTS  0.1407000D+01 0.1407000D+01 0.1407000D+01 0.3880000D+00 0.3880000D+00
EXPONENTS  0.3880000D+00 0.1020000D+00 0.1020000D+00 0.1020000D+00 0.1057000D+01
EXPONENTS  0.1057000D+01 0.1057000D+01 0.1057000D+01 0.1057000D+01 0.1057000D+01
EXPONENTS  0.2470000D+00 0.2470000D+00 0.2470000D+00 0.2470000D+00 0.2470000D+00
EXPONENTS  0.2470000D+00
MO    1     MO 0.0        OCC NO =    2.0000000  ORB. ENERGY =    0.000000
 -0.26435823D+00 -0.49272028D+00 -0.83547647D+00 -0.12644048D+01 -0.15772453D+01
 -0.13535111D+01 -0.51832286D+00  0.11764536D-03  0.12622575D-02  0.46529187D-02
  0.13604861D-01  0.16394520D-01 -0.19748936D-01 -0.41476780D-01 -0.19384266D-01
 -0.16170726D-02 -0.10981077D+00 -0.10647951D+00 -0.71830450D-01  0.12103148D+01
  0.11735982D+01  0.79170241D+00 -0.14540298D+00 -0.14099198D+00 -0.95112357D-01
 -0.24781638D-01  0.25246366D+00 -0.25040913D-01 -0.41004901D-02  0.24442744D-01
 -0.13915965D-03 -0.13334582D-03  0.24718059D-03  0.17821789D-05 -0.14145212D-02
 -0.36295790D-02  0.50441003D-02 -0.41825512D-03  0.43740850D-02 -0.10995696D+00
  0.13646845D-02 -0.25331930D-02  0.11685084D-02  0.80194303D-04  0.11313580D-02
 -0.15780230D-01  0.46394864D-03 -0.40477566D-03 -0.59172979D-04  0.28429587D-04
  0.79624560D-04  0.71242034D-03  0.64269802D-03  0.59482272D-02 -0.72031341D-03
 -0.13750297D-02 -0.13364541D-01 -0.68452623D-03 -0.55306437D-03 -0.44801405D-02
  0.28454665D-02  0.18216320D-03  0.27513077D-04  0.12843740D-03 -0.19970274D-03
 -0.48717777D-04 -0.85497013D-03 -0.31406912D-03 -0.33821453D-04  0.46965794D-03
  0.91317733D-03 -0.97454959D-04 -0.29866258D-01 -0.53865026D-01 -0.79423949D-01
 -0.50833362D-01 -0.66114284D-02  0.12202335D-03 -0.12672244D-02 -0.14652342D-01
 -0.17980600D-01 -0.69989264D-03 -0.48760307D-02 -0.75572655D-02 -0.11389157D-03
  0.18683089D-03 -0.22361474D-03  0.43177628D-02 -0.24473659D-02 -0.18703969D-02
 -0.68415498D-03 -0.44934308D-03 -0.12813340D-01  0.15868452D-03 -0.10514323D-04
 -0.14817019D-03 -0.65561338D-04 -0.32226306D-04 -0.89456869D-03  0.32207183D-01
  0.58086981D-01  0.85649219D-01  0.64045134D-01  0.73790096D-02 -0.81401066D-04
 -0.16768188D-02 -0.19461654D-01  0.26191691D-01 -0.91156663D-03 -0.70747160D-02
  0.10293731D-01 -0.13750878D-03  0.36090617D-03  0.59935043D-04 -0.70952553D-02
  0.33333878D-02  0.37618675D-02  0.80635409D-03 -0.64657679D-03 -0.20830884D-01
  0.76833887D-04 -0.29914344D-03  0.22230955D-03  0.85882676D-04 -0.61901743D-04
 -0.71578899D-04
MO    2     MO 0.0        OCC NO =    2.0000000  ORB. ENERGY =    0.000000
 -0.73826296D-01 -0.13760008D+00 -0.23332027D+00 -0.35310541D+00 -0.44047117D+00
 -0.37798980D+00 -0.14475001D+00 -0.25747030D-03 -0.27624873D-02 -0.10183048D-01
 -0.29774636D-01 -0.35879885D-01  0.43221123D-01  0.18552689D-01  0.64111313D-01
  0.10366861D-01 -0.46616306D-01 -0.45202136D-01 -0.30493094D-01 -0.28250674D-03
 -0.27393651D-03 -0.18479595D-03  0.15971064D+01  0.15486560D+01  0.10447142D+01
 -0.10520174D-01  0.74043122D-02  0.34607090D+00 -0.17407190D-02  0.43283767D-02
  0.43009731D-01 -0.56607283D-04  0.62794981D-04  0.85134160D-03  0.40475187D-01
  0.61879725D-03 -0.41093984D-01 -0.17755552D-03  0.18568641D-02  0.10922337D-01
  0.50550113D-02  0.67170827D-02 -0.11772094D-01  0.34043674D-04  0.48027829D-03
 -0.38679477D-02 -0.75664296D-03  0.13486267D-02 -0.59198375D-03  0.12068782D-04
  0.33801810D-04 -0.14301394D-02  0.27283487D-03  0.10269463D-02  0.13038766D-02
 -0.58372055D-03 -0.18152129D-02 -0.17952801D-01 -0.23478405D-03 -0.12656262D-02
  0.14041171D-01  0.77330989D-04  0.11679710D-04 -0.38681846D-03  0.56985210D-03
 -0.20681421D-04 -0.31545640D-03 -0.23057780D-03 -0.14357710D-04  0.14759118D-02
 -0.14789785D-02 -0.41371079D-04 -0.24279803D-01 -0.43789625D-01 -0.64567777D-01
 -0.50155869D-01 -0.11177945D-01 -0.17329512D-03 -0.53795562D-03 -0.18530923D-01
  0.42688209D-02 -0.29711483D-03 -0.11736089D-01  0.11597824D-02 -0.48348667D-04
 -0.58002246D-03  0.87984847D-03  0.25706888D-02 -0.60457753D-02  0.34750865D-02
 -0.29043396D-03 -0.19075282D-03 -0.31968409D-02  0.40577905D-03 -0.50720599D-03
  0.10142694D-03 -0.27831763D-04 -0.13680546D-04 -0.81013580D-04 -0.28828827D-01
 -0.51993976D-01 -0.76665087D-01 -0.63015223D-01 -0.98945039D-02 -0.11622673D-03
 -0.71183449D-03  0.29889072D-01 -0.12246917D-02 -0.38697359D-03  0.14278173D-01
  0.20815085D-03 -0.58374523D-04  0.30372511D-03  0.11834889D-02  0.43668898D-02
 -0.81447792D-02  0.37778894D-02  0.34230930D-03 -0.27448146D-03  0.10430583D-01
  0.89843878D-05 -0.33164019D-03  0.32265580D-03  0.36458473D-04 -0.26278210D-04
 -0.70201425D-03
MO    3     MO 0.0        OCC NO =    2.0000000  ORB. ENERGY =    0.000000
  0.41150926D+00  0.76698560D+00  0.13005319D+01  0.19682167D+01  0.24551952D+01
  0.21069227D+01  0.80683947D+00  0.33570791D-03  0.36019256D-02  0.13277376D-01
  0.38822269D-01  0.46782721D-01 -0.56354746D-01  0.15363569D-01 -0.14017671D-01
 -0.15732305D-03  0.39724712D+00  0.38519608D+00  0.25985100D+00  0.77020224D+00
  0.74683709D+00  0.50381189D+00  0.12770749D+00  0.12383331D+00  0.83537217D-01
  0.89649075D-01  0.16543229D+00  0.33498295D-01  0.14833771D-01  0.17576751D-01
  0.53587190D-02  0.48238657D-03  0.20483925D-03  0.10365100D-03  0.49340105D-02
 -0.24622279D-02 -0.24717826D-02  0.15130632D-02 -0.15823517D-01 -0.70880744D-01
  0.27081276D-02 -0.19184346D-02 -0.78969301D-03 -0.29010775D-03 -0.40927560D-02
 -0.12675309D-01  0.24611927D-03 -0.14773896D-03 -0.98380307D-04 -0.10284575D-03
 -0.28804667D-03 -0.39472361D-04 -0.23249990D-02  0.39748311D-02 -0.17490777D-03
  0.49742532D-02 -0.10488891D-01 -0.25002094D-02  0.20007438D-02 -0.14356024D-02
  0.30249327D-02 -0.65898642D-03 -0.99530221D-04  0.52222924D-04 -0.19780221D-03
  0.17623951D-03 -0.66548146D-03 -0.60341947D-03  0.12235115D-03  0.50881269D-03
  0.11968261D-02  0.35254922D-03 -0.24927040D-01 -0.44956943D-01 -0.66288986D-01
 -0.39959588D-01 -0.50297105D-02  0.86638142D-04  0.45842611D-02 -0.13767717D-01
 -0.12109787D-01  0.25319040D-02 -0.43739401D-02 -0.45438524D-02  0.41200966D-03
  0.16261214D-03  0.10673140D-04  0.35352982D-02 -0.27858822D-02 -0.74941605D-03
  0.24749721D-02  0.16255258D-02 -0.97647296D-02  0.13623328D-03 -0.36411848D-04
 -0.99821429D-04  0.23717211D-03  0.11658061D-03 -0.54703051D-03  0.13404138D-01
  0.24174914D-01  0.35645897D-01  0.27032032D-01  0.28682094D-02 -0.77940484D-04
  0.60659934D-02 -0.31170522D-02  0.12449043D-01  0.32976475D-02 -0.51004231D-03
  0.49479537D-02  0.49744635D-03  0.38032275D-03  0.10411040D-03 -0.17099721D-02
 -0.81854690D-03  0.25285190D-02 -0.29170347D-02  0.23390307D-02 -0.54258475D-02
  0.69977882D-04 -0.26924072D-03  0.19926284D-03 -0.31068578D-03  0.22393330D-03
 -0.54229738D-04
MO    4     MO 0.0        OCC NO =    2.0000000  ORB. ENERGY =    0.000000
 -0.11991369D+00 -0.22349940D+00 -0.37897464D+00 -0.57353782D+00 -0.71544322D+00
 -0.61395672D+00 -0.23511281D+00 -0.49120407D-03 -0.52702973D-02 -0.19427308D-01
 -0.56804310D-01 -0.68451956D-01  0.82457635D-01  0.36449334D-01  0.24002023D-01
  0.15797365D-02  0.16899048D+01  0.16386392D+01  0.11054163D+01 -0.34923429D-01
 -0.33863978D-01 -0.22844440D-01  0.21884062D-01  0.21220179D-01  0.14315007D-01
  0.38137068D+00 -0.92335456D-02  0.33268786D-02  0.63103445D-01 -0.14638625D-02
  0.15670466D-02  0.20520914D-02 -0.17752508D-04  0.30894625D-04 -0.48741068D-02
  0.54891131D-02 -0.61500631D-03  0.64366302D-02 -0.67313864D-01  0.19516579D-02
 -0.16424079D-02  0.17407800D-02 -0.98372053D-04 -0.12341297D-02 -0.17410745D-01
  0.16638477D-02 -0.36743106D-04  0.47249726D-04 -0.10506620D-04 -0.43750986D-03
 -0.12253618D-02  0.16017944D-03 -0.98906370D-02 -0.39287266D-03  0.59125193D-03
  0.21160668D-01  0.10995008D-02  0.11727249D-02  0.85112428D-02  0.79117202D-04
 -0.29464806D-02 -0.28033541D-02 -0.42340546D-03  0.14296681D-04 -0.79153520D-05
  0.74972978D-03  0.16980338D-03  0.12692277D-03  0.52048661D-03 -0.21269342D-03
 -0.10317672D-03  0.14997582D-02  0.53072789D-02  0.95718960D-02  0.14113755D-01
  0.40192612D-02 -0.76151252D-03 -0.33074357D-04  0.19501627D-01  0.48110996D-02
  0.40982782D-02  0.10770819D-01  0.16906785D-03  0.85661317D-03  0.17527053D-02
 -0.13676373D-03  0.69682533D-05 -0.51613094D-03  0.22132799D-03  0.29480295D-03
  0.10528628D-01  0.69150505D-02  0.17511817D-02  0.91060591D-05 -0.41371614D-04
  0.32265555D-04  0.10089395D-02  0.49593851D-03  0.37602385D-04  0.46315765D-02
  0.83532389D-02  0.12316846D-01  0.22069396D-02 -0.10782297D-02 -0.21029280D-04
  0.25804974D-01 -0.58678057D-02  0.50953676D-02  0.14028322D-01 -0.45476161D-03
  0.69846036D-03  0.21161563D-02  0.76610951D-04  0.15767824D-05 -0.86636214D-03
  0.59120316D-03  0.27515897D-03 -0.12409180D-01  0.99503282D-02 -0.28754168D-02
  0.28616845D-04 -0.12790429D-04 -0.15826417D-04 -0.13216695D-02  0.95262105D-03
  0.51170285D-04
MO    5     MO 0.0        OCC NO =    2.0000000  ORB. ENERGY =    0.000000
 -0.15514431D-01 -0.28916348D-01 -0.49031732D-01 -0.74204312D-01 -0.92564030D-01
 -0.79433709D-01 -0.30418891D-01 -0.16152267D-02 -0.17330322D-01 -0.63882830D-01
 -0.18678965D+00 -0.22509061D+00  0.27114549D+00  0.16528316D+00  0.79025695D-01
  0.53283615D-02 -0.43191805D+00 -0.41881522D+00 -0.28253027D+00  0.26405685D+00
  0.25604632D+00  0.17272733D+00  0.67672618D-01  0.65619676D-01  0.44266645D-01
 -0.97473466D-01  0.51040462D-01  0.12841381D-01 -0.16128433D-01  0.37569070D-02
  0.64531264D-02 -0.52448830D-03  0.49318129D-04  0.12387057D-03 -0.18541085D-01
  0.20067896D-01 -0.15268116D-02 -0.16451203D-02  0.17204562D-01 -0.30778420D-01
 -0.48278144D-02  0.49655395D-02 -0.13772512D-03  0.31542777D-03  0.44499635D-02
 -0.71850944D-03  0.46312395D-04  0.63423987D-05 -0.52654794D-04  0.11182192D-03
  0.31318680D-03  0.56363498D-03  0.25279203D-02  0.49551281D-03  0.21948472D-02
 -0.54083960D-02 -0.17513529D-02  0.44004969D-02 -0.21753647D-02  0.26481444D-03
 -0.10985039D-01  0.71650143D-03  0.10821702D-03  0.11306236D-03 -0.22362445D-03
 -0.19162134D-03  0.30371802D-03  0.46345874D-04 -0.13302972D-03 -0.64290511D-03
  0.62452748D-03 -0.38331900D-03  0.80526228D-02  0.14523237D-01  0.21414504D-01
 -0.26892375D-02 -0.47181199D-02 -0.62041546D-04 -0.49843662D-02  0.11886381D-01
  0.90077024D-02 -0.27528835D-02 -0.85500644D-03  0.96862554D-03 -0.44796904D-03
 -0.37043608D-03 -0.10289420D-05 -0.14307813D-03 -0.42156509D-03  0.56464322D-03
 -0.26909826D-02 -0.17673984D-02  0.14733985D-02  0.76786466D-04 -0.13794269D-03
  0.61156220D-04 -0.25787201D-03 -0.12675554D-03 -0.11981905D-03  0.25372582D-01
  0.45760497D-01  0.67473826D-01  0.24015218D-01 -0.23888030D-02 -0.12072276D-03
 -0.65954211D-02 -0.24102934D-01  0.24858868D-01 -0.35854595D-02 -0.19907302D-02
  0.46439969D-02 -0.54086247D-03  0.52500099D-03 -0.41047664D-04 -0.36298179D-02
  0.15918513D-02  0.20379665D-02  0.31716277D-02 -0.25431766D-02 -0.12070259D-01
  0.15582180D-03 -0.18582390D-03  0.30002095D-04  0.33780181D-03 -0.24347775D-03
  0.24429577D-03
END DATA
 TOTAL ENERGY =    -76.459201268050 THE VIRIAL(-V/T)=   2.00657540
