 41
GAUSSIAN              5 MOL ORBITALS    126 PRIMITIVES        3 NUCLEI   B3LYP   B3LYP
  O    1    (CENTRE  1)   0.00000000 -0.09448631  0.00815606  CHARGE =  8.0
  H    2    (CENTRE  2)   0.00000000 -1.53704465 -1.09730160  CHARGE =  1.0
  H    3    (CENTRE  3)   0.00000000  1.44255835 -1.09730160  CHARGE =  1.0
CENTRE ASSIGNMENTS    1  1  1  1  1  1  1  1  1  1  1  1  1  1  1  1  1  1  1  1
CENTRE ASSIGNMENTS    1  1  1  1  1  1  1  1  1  1  1  1  1  1  1  1  1  1  1  1
CENTRE ASSIGNMENTS    1  1  1  1  1  1  1  1  1  1  1  1  1  1  1  1  1  1  1  1
CENTRE ASSIGNMENTS    1  1  1  1  1  1  1  1  1  1  1  1  2  2  2  2  2  2  2  2
CENTRE ASSIGNMENTS    2  2  2  2  2  2  2  2  2  2  2  2  2  2  2  2  2  2  2  3
CENTRE ASSIGNMENTS    3  3  3  3  3  3  3  3  3  3  3  3  3  3  3  3  3  3  3  3
CENTRE ASSIGNMENTS    3  3  3  3  3  3
TYPE ASSIGNMENTS      1  1  1  1  1  1  1  1  1  1  1  1  1  1  1  1  2  2  2  3
TYPE ASSIGNMENTS      3  3  4  4  4  2  3  4  2  3  4  2  3  4  5  6  7  8  9 10
TYPE ASSIGNMENTS      5  6  7  8  9 10  5  6  7  8  9 10 11 12 13 17 14 15 18 19
TYPE ASSIGNMENTS     16 20 11 12 13 17 14 15 18 19 16 20  1  1  1  1  1  1  2  3
TYPE ASSIGNMENTS      4  2  3  4  2  3  4  5  6  7  8  9 10  5  6  7  8  9 10  1
TYPE ASSIGNMENTS      1  1  1  1  1  2  3  4  2  3  4  2  3  4  5  6  7  8  9 10
TYPE ASSIGNMENTS      5  6  7  8  9 10
EXPONENTS  0.1533000D+05 0.2299000D+04 0.5224000D+03 0.1473000D+03 0.4755000D+02
EXPONENTS  0.1676000D+02 0.6207000D+01 0.5224000D+03 0.1473000D+03 0.4755000D+02
EXPONENTS  0.1676000D+02 0.6207000D+01 0.6882000D+00 0.1752000D+01 0.2384000D+00
EXPONENTS  0.7376000D-01 0.3446000D+02 0.7749000D+01 0.2280000D+01 0.3446000D+02
EXPONENTS  0.7749000D+01 0.2280000D+01 0.3446000D+02 0.7749000D+01 0.2280000D+01
EXPONENTS  0.7156000D+00 0.7156000D+00 0.7156000D+00 0.2140000D+00 0.2140000D+00
EXPONENTS  0.2140000D+00 0.5974000D-01 0.5974000D-01 0.5974000D-01 0.2314000D+01
EXPONENTS  0.2314000D+01 0.2314000D+01 0.2314000D+01 0.2314000D+01 0.2314000D+01
EXPONENTS  0.6450000D+00 0.6450000D+00 0.6450000D+00 0.6450000D+00 0.6450000D+00
EXPONENTS  0.6450000D+00 0.2140000D+00 0.2140000D+00 0.2140000D+00 0.2140000D+00
EXPONENTS  0.2140000D+00 0.2140000D+00 0.1428000D+01 0.1428000D+01 0.1428000D+01
EXPONENTS  0.1428000D+01 0.1428000D+01 0.1428000D+01 0.1428000D+01 0.1428000D+01
EXPONENTS  0.1428000D+01 0.1428000D+01 0.5000000D+00 0.5000000D+00 0.5000000D+00
EXPONENTS  0.5000000D+00 0.5000000D+00 0.5000000D+00 0.5000000D+00 0.5000000D+00
EXPONENTS  0.5000000D+00 0.5000000D+00 0.3387000D+02 0.5095000D+01 0.1159000D+01
EXPONENTS  0.3258000D+00 0.1027000D+00 0.2526000D-01 0.1407000D+01 0.1407000D+01
EXPONENTS  0.1407000D+01 0.3880000D+00 0.3880000D+00 0.3880000D+00 0.1020000D+00
EXPONENTS  0.1020000D+00 0.1020000D+00 0.1057000D+01 0.1057000D+01 0.1057000D+01
EXPONENTS  0.1057000D+01 0.1057000D+01 0.1057000D+01 0.2470000D+00 0.2470000D+00
EXPONENTS  0.2470000D+00 0.2470000D+00 0.2470000D+00 0.2470000D+00 0.3387000D+02
EXPONENTS  0.5095000D+01 0.1159000D+01 0.3258000D+00 0.1027000D+00 0.2526000D-01
EXPONENTS  0.1407000D+01 0.1407000D+01 0.1407000D+01 0.3880000D+00 0.3880000D+00
EXPONENTS  0.3880000D+00 0.1020000D+00 0.1020000D+00 0.1020000D+00 0.1057000D+01
EXPONENTS  0.1057000D+01 0.1057000D+01 0.1057000D+01 0.1057000D+01 0.1057000D+01
EXPONENTS  0.2470000D+00 0.2470000D+00 0.2470000D+00 0.2470000D+00 0.2470000D+00
EXPONENTS  0.2470000D+00
MO    1     MO 0.0        OCC NO =    2.0000000  ORB. ENERGY =    0.000000
 -0.10936112D-01 -0.20383114D-01 -0.34562435D-01 -0.52306570D-01 -0.65248323D-01
 -0.55992769D-01 -0.21442256D-01 -0.52532861D-03 -0.56364313D-02 -0.20776947D-01
 -0.60750574D-01 -0.73207396D-01  0.88186066D-01  0.52218183D-01 -0.15645328D-01
 -0.60348396D-02 -0.70125723D+00 -0.67998362D+00 -0.45871293D+00 -0.53107248D-01
 -0.51496166D-01 -0.34739010D-01 -0.12858955D+01 -0.12468861D+01 -0.84114197D+00
 -0.15841920D+00 -0.82264607D-02 -0.28160985D+00 -0.26252336D-01  0.43987582D-03
 -0.33658696D-01 -0.85443153D-03  0.96675993D-05 -0.67491337D-03 -0.41571909D-01
  0.92804695D-02  0.32291440D-01  0.90408174D-03  0.27650787D-01  0.87748144D-02
 -0.66987535D-02 -0.32272923D-02  0.99260457D-02 -0.16926566D-03  0.73372816D-02
 -0.89067233D-03  0.56300283D-03 -0.11069091D-02  0.54390631D-03 -0.61334059D-04
  0.51881515D-03 -0.50348769D-03  0.41396573D-02  0.15496608D-03 -0.64137458D-04
 -0.89387676D-02 -0.21769912D-03  0.16869214D-01 -0.34802042D-02 -0.24719912D-03
 -0.16676802D-01 -0.39947492D-03  0.18193996D-03 -0.12379619D-03 -0.56763089D-03
 -0.30112359D-03 -0.12222351D-03  0.36673929D-03 -0.24469630D-03  0.49361208D-03
  0.13361534D-02  0.20888474D-03  0.31497308D-01  0.56806693D-01  0.83761435D-01
  0.55299667D-01  0.72271845D-02  0.65040138D-04 -0.97565202D-02  0.30338542D-01
  0.74404516D-02 -0.53291593D-02  0.11854480D-01  0.12137423D-02 -0.82517575D-03
  0.14089718D-03 -0.87686925D-03 -0.43814937D-02  0.69470586D-02 -0.25655649D-02
 -0.48691202D-02 -0.36411530D-02  0.10683655D-01 -0.96393937D-04  0.26038780D-03
 -0.16399387D-03 -0.50990318D-03 -0.32756885D-03 -0.35604418D-03  0.26983505D-01
  0.48665862D-01  0.71757786D-01  0.46277994D-01  0.70023286D-02  0.88822575D-04
 -0.88878695D-02 -0.24849601D-01  0.30469014D-02 -0.48782494D-02 -0.10406580D-01
  0.87888050D-04 -0.77464043D-03 -0.22749422D-03 -0.80176330D-03 -0.31358329D-02
  0.58784084D-02 -0.27425755D-02  0.46079379D-02 -0.32257342D-02 -0.64286029D-02
 -0.21212552D-03  0.31391941D-03 -0.10179389D-03  0.46578458D-03 -0.26397137D-03
  0.15057878D-03
MO    2     MO 0.0        OCC NO =    2.0000000  ORB. ENERGY =    0.000000
  0.13056684D+00  0.24335513D+00  0.41264282D+00  0.62449103D+00  0.77900333D+00
  0.66850076D+00  0.25600028D+00 -0.19116389D-03 -0.20510631D-02 -0.75606047D-02
 -0.22106765D-01 -0.26639726D-01  0.32090373D-01  0.34850403D-01 -0.60615236D-02
 -0.23840325D-02  0.15824501D+01  0.15344443D+01  0.10351271D+01  0.96124848D-01
  0.93208768D-01  0.62878085D-01 -0.51227608D+00 -0.49673548D+00 -0.33509482D+00
  0.35748719D+00  0.21074213D-01 -0.11203055D+00  0.59240762D-01  0.25094397D-02
 -0.13508769D-01  0.19281018D-02  0.26532895D-04 -0.27216220D-03 -0.17038447D-01
  0.42563173D-02  0.12782130D-01 -0.20401419D-02 -0.62396493D-01 -0.70870660D-02
 -0.26299420D-02 -0.13294824D-02  0.39594244D-02  0.38196321D-03 -0.16557237D-01
 -0.18185238D-02  0.22309535D-03 -0.44452328D-03  0.22142793D-03  0.13840583D-03
 -0.11707532D-02 -0.13248496D-03 -0.93415097D-02  0.63500294D-03  0.84440533D-04
  0.20171135D-01 -0.12843121D-02  0.69998916D-02  0.78533944D-02 -0.62069669D-03
 -0.72532132D-02  0.90145116D-03 -0.41056393D-03 -0.41052275D-04 -0.25599466D-03
  0.67951252D-03 -0.13237462D-03  0.86594339D-04  0.55217926D-03  0.25553145D-03
  0.68138965D-03 -0.47136725D-03  0.94637501D-02  0.17068263D-01  0.25167144D-01
  0.16172846D-01  0.21526825D-02  0.34693277D-04  0.22016467D-01  0.10174905D-01
  0.59017896D-03  0.12025728D-01  0.39334244D-02 -0.54568473D-03  0.18620834D-02
  0.69000947D-04 -0.37639002D-03 -0.88900485D-03  0.22141336D-02 -0.13251287D-02
  0.10987609D-01  0.82165900D-02  0.17830106D-02 -0.33093265D-04  0.11809660D-03
 -0.85003332D-04  0.11506425D-02  0.73918865D-03 -0.19781600D-03  0.13662109D-01
  0.24640177D-01  0.36331927D-01  0.23771378D-01  0.34814270D-02  0.26996557D-04
  0.20056279D-01 -0.11378222D-01  0.31146914D-02  0.11008209D-01 -0.46793392D-02
  0.81955619D-03  0.17480459D-02 -0.70000629D-04 -0.30761941D-03 -0.15820370D-02
  0.24618213D-02 -0.87978424D-03 -0.10398227D-01  0.72791601D-02 -0.35935409D-02
 -0.95170785D-04  0.11970392D-03 -0.24533139D-04 -0.10510849D-02  0.59567520D-03
 -0.51927194D-05
MO    3     MO 0.0        OCC NO =    2.0000000  ORB. ENERGY =    0.000000
  0.48745192D+00  0.90853023D+00  0.15405407D+01  0.23314445D+01  0.29082932D+01
  0.24957483D+01  0.95573900D+00  0.61791154D-03  0.66297853D-02  0.24438637D-01
  0.71457141D-01  0.86109329D-01 -0.10372781D+00 -0.60469509D-02 -0.28194519D-01
 -0.18884733D-02 -0.43608303D+00 -0.42285385D+00 -0.28525471D+00  0.11367025D+00
  0.11022191D+00  0.74355047D-01 -0.34965460D-01 -0.33904735D-01 -0.22871934D-01
 -0.98514383D-01  0.22463322D-01 -0.49939954D-02 -0.16325248D-01  0.18294838D-02
 -0.21020218D-02 -0.53133583D-03  0.13218498D-04 -0.45068724D-04  0.43105089D-02
 -0.51722202D-02  0.86171125D-03  0.56221126D-03  0.17194887D-01 -0.10317492D-01
  0.20699445D-02 -0.22030898D-02  0.13314524D-03 -0.10525935D-03  0.45627537D-02
 -0.73457119D-03  0.63173475D-04 -0.76868012D-04  0.13694537D-04 -0.38141129D-04
  0.32262981D-03  0.16173366D-03  0.25742826D-02  0.47391309D-03 -0.42668483D-03
 -0.55586520D-02 -0.67960033D-03 -0.62577110D-03 -0.21641958D-02 -0.74213895D-03
  0.19058256D-02 -0.24841703D-03  0.11314098D-03  0.99760111D-05 -0.67785582D-04
 -0.18725638D-03 -0.23602629D-04 -0.32585871D-03 -0.15216657D-03 -0.63254039D-05
  0.52921545D-03  0.12989683D-03 -0.88892844D-02 -0.16032190D-01 -0.23639455D-01
 -0.96348290D-02  0.32441512D-03  0.37784349D-04 -0.60671787D-02 -0.86186559D-02
 -0.82622946D-02 -0.33139850D-02 -0.14661858D-02 -0.22124664D-02 -0.51314286D-03
  0.10909280D-03 -0.58698994D-04  0.22219410D-02 -0.15363365D-02 -0.68560452D-03
 -0.30279056D-02 -0.22642833D-02 -0.67281876D-02 -0.17020979D-04  0.43292821D-04
 -0.26271842D-04 -0.31708782D-03 -0.20370160D-03 -0.53460548D-04 -0.26621906D-02
 -0.48013704D-02 -0.70796179D-02  0.22453001D-02  0.18964461D-02  0.29492613D-04
 -0.55270006D-02  0.42609724D-02 -0.30328342D-02 -0.30335827D-02 -0.34689043D-03
 -0.10428493D-03 -0.48171703D-03 -0.12540238D-03 -0.10317462D-05  0.60788940D-03
 -0.50674085D-03 -0.10114855D-03  0.28654871D-02 -0.20059515D-02  0.19469267D-02
 -0.34220863D-04  0.42261671D-04 -0.80408080D-05  0.28965227D-03 -0.16415294D-03
 -0.64308563D-04
MO    4     MO 0.0        OCC NO =    2.0000000  ORB. ENERGY =    0.000000
 -0.29746674D-01 -0.55442909D-01 -0.94011243D-01 -0.14227602D+00 -0.17747812D+00
 -0.15230263D+00 -0.58323817D-01 -0.51776570D-03 -0.55552862D-02 -0.20477831D-01
 -0.59875976D-01 -0.72153462D-01  0.86916492D-01  0.49197144D-01  0.36101878D-01
  0.32105549D-02 -0.13116206D+00 -0.12718307D+00 -0.85796950D-01  0.13822625D+01
  0.13403296D+01  0.90417845D+00  0.25298286D+00  0.24530828D+00  0.16548351D+00
 -0.29630479D-01  0.29001253D+00  0.51042989D-01 -0.49101959D-02  0.28567924D-01
  0.63206983D-02 -0.15981154D-03  0.30031525D-03  0.12510178D-03  0.61742018D-03
  0.64070457D-02 -0.70244659D-02  0.16909804D-03  0.51717600D-02 -0.12764241D+00
 -0.14586457D-02  0.32873353D-02 -0.18286896D-02 -0.31659184D-04  0.13723537D-02
 -0.18966423D-01 -0.29247869D-03  0.34886427D-03 -0.56385576D-04 -0.11471827D-04
  0.97038376D-04  0.61349663D-03  0.77427503D-03  0.67429244D-02  0.95731046D-03
 -0.16718931D-02 -0.15634583D-01 -0.68025031D-03 -0.65093195D-03 -0.45941905D-02
 -0.21916811D-02 -0.74717165D-04  0.34029767D-04  0.13963746D-03  0.12799108D-03
 -0.56321685D-04 -0.10294853D-02  0.21419237D-03 -0.45767614D-04  0.61057294D-03
 -0.59816560D-03  0.39069476D-04 -0.34192051D-01 -0.61666772D-01 -0.90927619D-01
 -0.70384384D-01 -0.99580681D-02  0.74092922D-04 -0.18248443D-02 -0.17665130D-01
 -0.21323301D-01 -0.99675764D-03 -0.84252074D-02 -0.96468961D-02 -0.15433958D-03
  0.19366364D-03 -0.11937441D-04  0.65307122D-02 -0.39655942D-02 -0.25651180D-02
 -0.91071264D-03 -0.68103558D-03 -0.18645935D-01  0.63346362D-04  0.13897492D-03
 -0.20232128D-03 -0.95371495D-04 -0.61267967D-04 -0.45666828D-03  0.36341525D-01
  0.65543437D-01  0.96643759D-01  0.58269757D-01  0.55705916D-02 -0.17205968D-03
 -0.16623732D-02 -0.20021638D-01  0.26977626D-01 -0.91242015D-03 -0.50995324D-02
  0.10177181D-01 -0.14488754D-03  0.43506572D-03  0.30706864D-03 -0.59649696D-02
  0.27547775D-02  0.32101921D-02  0.86186151D-03 -0.60333629D-03 -0.18297998D-01
 -0.62869223D-04 -0.17221332D-03  0.23508255D-03  0.87119620D-04 -0.49372794D-04
 -0.80604725D-03
MO    5     MO 0.0        OCC NO =    2.0000000  ORB. ENERGY =    0.000000
  0.59800051D-01  0.11145746D+00  0.18899179D+00  0.28601898D+00  0.35678613D+00
  0.30617558D+00  0.11724898D+00 -0.14444238D-02 -0.15497719D-01 -0.57127510D-01
 -0.16703749D+00 -0.20128830D+00  0.24247308D+00  0.15666696D+00  0.95175626D-01
  0.91753817D-02 -0.93924209D-01 -0.91074889D-01 -0.61438582D-01 -0.44200995D+00
 -0.42860096D+00 -0.28913168D+00  0.77890708D+00  0.75527785D+00  0.50950598D+00
 -0.21218174D-01 -0.92806272D-01  0.16695458D+00 -0.35161561D-02 -0.93930774D-02
  0.24637640D-01 -0.11443990D-03 -0.10590262D-03  0.48815814D-03  0.24422483D-02
  0.17488247D-01 -0.19930495D-01  0.12108989D-03  0.37034603D-02  0.41233182D-01
 -0.18690764D-02  0.73344110D-02 -0.54653346D-02 -0.22670915D-04  0.98273265D-03
  0.59077017D-02 -0.32962012D-03  0.64472393D-03 -0.31510381D-03 -0.82148929D-05
  0.69488487D-04 -0.80631534D-04  0.55445281D-03 -0.20749909D-02  0.25457440D-02
 -0.11972307D-02  0.49756008D-02 -0.41583290D-02 -0.46612771D-03  0.12493720D-02
 -0.34789030D-02 -0.53504427D-04  0.24368472D-04 -0.86848068D-05  0.60996425D-04
 -0.40331556D-04  0.22950416D-03 -0.65369861D-04 -0.32773861D-04 -0.20344974D-03
 -0.11761941D-03  0.27977372D-04  0.13301825D-01  0.23990389D-01  0.35373814D-01
  0.26274150D-02 -0.52910097D-02 -0.17998320D-03 -0.13067579D-02  0.95992544D-02
  0.22530004D-01 -0.71377101D-03 -0.36640752D-02  0.54880564D-02 -0.11052147D-03
 -0.66638247D-03  0.49460982D-03 -0.17012031D-02 -0.18931577D-02  0.35943607D-02
 -0.65215480D-03 -0.48768470D-03  0.75510146D-02  0.15270210D-03 -0.34947702D-03
  0.19677492D-03 -0.68294845D-04 -0.43873553D-04  0.21139785D-03 -0.96723067D-02
 -0.17444403D-01 -0.25721763D-01 -0.36813458D-01 -0.10209370D-01 -0.10498138D-03
 -0.11904136D-02  0.20062494D-02  0.61358921D-02 -0.65337754D-03  0.75913006D-02
 -0.57608609D-03 -0.10375293D-03  0.49381511D-03  0.37928564D-03  0.22658505D-02
 -0.39064281D-02  0.16405776D-02  0.61717286D-03 -0.43204480D-03  0.39658183D-02
  0.22699927D-03 -0.28272276D-03  0.55723495D-04  0.62385736D-04 -0.35355504D-04
  0.21245863D-03
END DATA
 TOTAL ENERGY =    -76.464666781330 THE VIRIAL(-V/T)=   2.00691325
