 42
GAUSSIAN              5 MOL ORBITALS    126 PRIMITIVES        3 NUCLEI   B3LYP   B3LYP   B3LYP   B3LYP
  O    1    (CENTRE  1)   0.00000000  0.00000000  0.10264236  CHARGE =  8.0
  H    2    (CENTRE  2)   0.00000000 -1.34807204 -1.09730160  CHARGE =  1.0
  H    3    (CENTRE  3)   0.00000000  1.44255835 -1.09730160  CHARGE =  1.0
CENTRE ASSIGNMENTS    1  1  1  1  1  1  1  1  1  1  1  1  1  1  1  1  1  1  1  1
CENTRE ASSIGNMENTS    1  1  1  1  1  1  1  1  1  1  1  1  1  1  1  1  1  1  1  1
CENTRE ASSIGNMENTS    1  1  1  1  1  1  1  1  1  1  1  1  1  1  1  1  1  1  1  1
CENTRE ASSIGNMENTS    1  1  1  1  1  1  1  1  1  1  1  1  2  2  2  2  2  2  2  2
CENTRE ASSIGNMENTS    2  2  2  2  2  2  2  2  2  2  2  2  2  2  2  2  2  2  2  3
CENTRE ASSIGNMENTS    3  3  3  3  3  3  3  3  3  3  3  3  3  3  3  3  3  3  3  3
CENTRE ASSIGNMENTS    3  3  3  3  3  3
TYPE ASSIGNMENTS      1  1  1  1  1  1  1  1  1  1  1  1  1  1  1  1  2  2  2  3
TYPE ASSIGNMENTS      3  3  4  4  4  2  3  4  2  3  4  2  3  4  5  6  7  8  9 10
TYPE ASSIGNMENTS      5  6  7  8  9 10  5  6  7  8  9 10 11 12 13 17 14 15 18 19
TYPE ASSIGNMENTS     16 20 11 12 13 17 14 15 18 19 16 20  1  1  1  1  1  1  2  3
TYPE ASSIGNMENTS      4  2  3  4  2  3  4  5  6  7  8  9 10  5  6  7  8  9 10  1
TYPE ASSIGNMENTS      1  1  1  1  1  2  3  4  2  3  4  2  3  4  5  6  7  8  9 10
TYPE ASSIGNMENTS      5  6  7  8  9 10
EXPONENTS  0.1533000D+05 0.2299000D+04 0.5224000D+03 0.1473000D+03 0.4755000D+02
EXPONENTS  0.1676000D+02 0.6207000D+01 0.5224000D+03 0.1473000D+03 0.4755000D+02
EXPONENTS  0.1676000D+02 0.6207000D+01 0.6882000D+00 0.1752000D+01 0.2384000D+00
EXPONENTS  0.7376000D-01 0.3446000D+02 0.7749000D+01 0.2280000D+01 0.3446000D+02
EXPONENTS  0.7749000D+01 0.2280000D+01 0.3446000D+02 0.7749000D+01 0.2280000D+01
EXPONENTS  0.7156000D+00 0.7156000D+00 0.7156000D+00 0.2140000D+00 0.2140000D+00
EXPONENTS  0.2140000D+00 0.5974000D-01 0.5974000D-01 0.5974000D-01 0.2314000D+01
EXPONENTS  0.2314000D+01 0.2314000D+01 0.2314000D+01 0.2314000D+01 0.2314000D+01
EXPONENTS  0.6450000D+00 0.6450000D+00 0.6450000D+00 0.6450000D+00 0.6450000D+00
EXPONENTS  0.6450000D+00 0.2140000D+00 0.2140000D+00 0.2140000D+00 0.2140000D+00
EXPONENTS  0.2140000D+00 0.2140000D+00 0.1428000D+01 0.1428000D+01 0.1428000D+01
EXPONENTS  0.1428000D+01 0.1428000D+01 0.1428000D+01 0.1428000D+01 0.1428000D+01
EXPONENTS  0.1428000D+01 0.1428000D+01 0.5000000D+00 0.5000000D+00 0.5000000D+00
EXPONENTS  0.5000000D+00 0.5000000D+00 0.5000000D+00 0.5000000D+00 0.5000000D+00
EXPONENTS  0.5000000D+00 0.5000000D+00 0.3387000D+02 0.5095000D+01 0.1159000D+01
EXPONENTS  0.3258000D+00 0.1027000D+00 0.2526000D-01 0.1407000D+01 0.1407000D+01
EXPONENTS  0.1407000D+01 0.3880000D+00 0.3880000D+00 0.3880000D+00 0.1020000D+00
EXPONENTS  0.1020000D+00 0.1020000D+00 0.1057000D+01 0.1057000D+01 0.1057000D+01
EXPONENTS  0.1057000D+01 0.1057000D+01 0.1057000D+01 0.2470000D+00 0.2470000D+00
EXPONENTS  0.2470000D+00 0.2470000D+00 0.2470000D+00 0.2470000D+00 0.3387000D+02
EXPONENTS  0.5095000D+01 0.1159000D+01 0.3258000D+00 0.1027000D+00 0.2526000D-01
EXPONENTS  0.1407000D+01 0.1407000D+01 0.1407000D+01 0.3880000D+00 0.3880000D+00
EXPONENTS  0.3880000D+00 0.1020000D+00 0.1020000D+00 0.1020000D+00 0.1057000D+01
EXPONENTS  0.1057000D+01 0.1057000D+01 0.1057000D+01 0.1057000D+01 0.1057000D+01
EXPONENTS  0.2470000D+00 0.2470000D+00 0.2470000D+00 0.2470000D+00 0.2470000D+00
EXPONENTS  0.2470000D+00
MO    1     MO 0.0        OCC NO =    2.0000000  ORB. ENERGY =    0.000000
 -0.79203717D-01 -0.14762271D+00 -0.25031504D+00 -0.37882520D+00 -0.47255458D+00
 -0.40552213D+00 -0.15529343D+00 -0.75074740D-03 -0.80550269D-02 -0.29692346D-01
 -0.86818678D-01 -0.10462073D+00  0.12602675D+00  0.67527205D-01 -0.58451849D-02
 -0.50247289D-02 -0.15447867D+00 -0.14979235D+00 -0.10104903D+00  0.36203794D-01
  0.35105502D-01  0.23681964D-01 -0.12712537D+01 -0.12326884D+01 -0.83156432D+00
 -0.34887180D-01  0.10701518D-01 -0.27732034D+00 -0.57645149D-02  0.24231290D-02
 -0.30807291D-01 -0.18504928D-03  0.35349139D-04 -0.55642316D-03 -0.45307990D-01
  0.61782211D-02  0.39129769D-01  0.15724125D-03  0.64381859D-02  0.93607005D-04
 -0.77607345D-02 -0.34097667D-02  0.11170501D-01 -0.41308864D-04  0.17011120D-02
 -0.24327835D-02  0.57577369D-03 -0.10313014D-02  0.45552767D-03 -0.12391382D-04
  0.11611525D-03 -0.48992974D-03  0.92485980D-03  0.42689066D-03 -0.16188628D-02
 -0.17171327D-02 -0.12541270D-02  0.18652168D-01 -0.10574467D-02 -0.26544962D-04
 -0.13795580D-01 -0.70193083D-04  0.40105510D-04 -0.10924841D-03 -0.71058062D-03
 -0.60496895D-04 -0.23525759D-03  0.51094826D-03 -0.59819634D-04  0.56300282D-03
  0.16207936D-02  0.46192589D-04  0.33276183D-01  0.60014967D-01  0.88492034D-01
  0.54789987D-01  0.59504108D-02  0.50542254D-04 -0.21871225D-02  0.32495109D-01
  0.11974328D-01 -0.11823332D-02  0.11312472D-01  0.22738571D-02 -0.18011279D-03
  0.34677893D-04 -0.82466185D-03 -0.50564356D-02  0.64790784D-02 -0.14226428D-02
 -0.10324085D-02 -0.86889865D-03  0.12639163D-01 -0.20405950D-04  0.11085546D-03
 -0.90449513D-04 -0.10653760D-03 -0.75744072D-04 -0.42403407D-03  0.32920823D-01
  0.59374060D-01  0.87547017D-01  0.53398245D-01  0.65536159D-02  0.50754486D-04
 -0.20034516D-02 -0.29251780D-01  0.97257774D-02 -0.10864439D-02 -0.10779376D-01
  0.21130154D-02 -0.16928675D-03 -0.61057287D-04 -0.74505308D-03 -0.44945413D-02
  0.60737379D-02 -0.15791966D-02  0.98815970D-03 -0.76911768D-03 -0.10230680D-01
 -0.14073714D-03  0.14142120D-03 -0.68406584D-06  0.98034738D-04 -0.61043994D-04
  0.10477364D-03
MO    2     MO 0.0        OCC NO =    2.0000000  ORB. ENERGY =    0.000000
  0.88461573D-01  0.16487783D+00  0.27957352D+00  0.42310480D+00  0.52778989D+00
  0.45292225D+00  0.17344516D+00 -0.60488557D-04 -0.64900252D-03 -0.23923455D-02
 -0.69950779D-02 -0.84294090D-02  0.10154116D-01  0.15988330D-01  0.91518649D-02
  0.84138452D-03 -0.15919946D+00 -0.15436993D+00 -0.10413704D+00  0.14425766D+01
  0.13988140D+01  0.94363168D+00  0.90295226D-01  0.87555996D-01  0.59064757D-01
 -0.35953315D-01  0.30224630D+00  0.16761068D-01 -0.59406756D-02  0.31343132D-01
  0.78961132D-03 -0.19070429D-03  0.35420506D-03  0.10577404D-04  0.12419429D-02
  0.19429431D-02 -0.31848860D-02  0.16204647D-03  0.66349338D-02 -0.13739246D+00
 -0.45450788D-03  0.10743037D-02 -0.61979586D-03 -0.42571243D-04  0.17530971D-02
 -0.19713542D-01 -0.19591017D-03  0.14355183D-03  0.52358332D-04 -0.12770057D-04
  0.11966367D-03  0.37466666D-03  0.95312307D-03  0.58427844D-02  0.32948906D-03
 -0.17696075D-02 -0.15082650D-01 -0.85080525D-04 -0.10897617D-02 -0.24457037D-02
 -0.90338667D-03 -0.72338150D-04  0.41331115D-04  0.79650820D-04  0.88495686D-04
 -0.62345651D-04 -0.10401543D-02  0.13057669D-03 -0.61647693D-04  0.80120186D-03
 -0.39606375D-03  0.47604212D-04 -0.36952761D-01 -0.66645827D-01 -0.98269233D-01
 -0.69889646D-01 -0.86457037D-02  0.12229976D-03 -0.22539599D-02 -0.17602279D-01
 -0.29226469D-01 -0.12184647D-02 -0.68692270D-02 -0.11717964D-01 -0.18561695D-03
  0.37948421D-03 -0.13782696D-03  0.71945759D-02 -0.17318249D-02 -0.54627510D-02
 -0.10639584D-02 -0.89545177D-03 -0.21066663D-01  0.94884994D-04  0.16944831D-03
 -0.26433331D-03 -0.10979334D-03 -0.78058775D-04 -0.45291027D-03  0.35202843D-01
  0.63489777D-01  0.93615639D-01  0.62515554D-01  0.79522673D-02 -0.14331869D-03
 -0.20646761D-02 -0.15469423D-01  0.25982777D-01 -0.11196451D-02 -0.55612417D-02
  0.10575599D-01 -0.17446007D-03  0.32868240D-03  0.24351301D-03 -0.59962689D-02
  0.14572420D-02  0.45390270D-02  0.10183574D-02 -0.79262154D-03 -0.17961811D-01
 -0.19347693D-03 -0.67105423D-04  0.26058235D-03  0.10103063D-03 -0.62909469D-04
 -0.77613788D-03
MO    3     MO 0.0        OCC NO =    2.0000000  ORB. ENERGY =    0.000000
  0.46561077D+00  0.86782193D+00  0.14715140D+01  0.22269800D+01  0.27779820D+01
  0.23839219D+01  0.91291543D+00  0.64917889D-03  0.69652635D-02  0.25675273D-01
  0.75072992D-01  0.90466605D-01 -0.10897661D+00 -0.12010930D-01 -0.43486491D-01
 -0.42845422D-02 -0.46850810D+00 -0.45429526D+00 -0.30646490D+00 -0.24149109D+00
 -0.23416512D+00 -0.15796641D+00 -0.43078247D+00 -0.41771409D+00 -0.28178746D+00
 -0.10580701D+00 -0.51241590D-01 -0.90311905D-01 -0.17482814D-01 -0.53570364D-02
 -0.11953403D-01 -0.56122366D-03 -0.63611675D-04 -0.21185889D-03 -0.66499413D-02
 -0.52926353D-02  0.11942577D-01  0.47688654D-03  0.19525946D-01  0.24064417D-01
  0.59426260D-03 -0.35697251D-02  0.29754625D-02 -0.12528291D-03  0.51591894D-02
  0.37592277D-02  0.27645800D-03 -0.39391286D-03  0.11745486D-03 -0.37580999D-04
  0.35215822D-03 -0.69462199D-04  0.28049458D-02 -0.92932230D-03 -0.10843737D-02
 -0.52077778D-02  0.28921682D-02  0.41383958D-02 -0.32070597D-02 -0.10420128D-03
 -0.88527477D-03 -0.21288394D-03  0.12163334D-03 -0.39629431D-04 -0.22470279D-03
 -0.18347701D-03  0.19639186D-03 -0.27863145D-03 -0.18142299D-03 -0.77503567D-04
  0.95273982D-03  0.14009443D-03  0.77367151D-02  0.13953484D-01  0.20574405D-01
  0.22535264D-01  0.46460547D-02  0.32545688D-04 -0.66331784D-02  0.32556304D-02
 -0.81331610D-03 -0.35858197D-02  0.34523440D-02  0.78767644D-03 -0.54625212D-03
  0.57325084D-04 -0.25583156D-03 -0.62114628D-03  0.10768056D-02 -0.45565927D-03
 -0.31311232D-02 -0.26352250D-02  0.83223907D-03 -0.42668510D-04  0.24548160D-04
  0.18120350D-04 -0.32311080D-03 -0.22971916D-03 -0.31990223D-04 -0.43729732D-02
 -0.78868373D-02 -0.11629137D-01  0.56503473D-03  0.22685745D-02  0.91530533D-04
 -0.60761351D-02  0.21019394D-02 -0.94061601D-02 -0.32950034D-02 -0.18608698D-02
 -0.25705066D-02 -0.51341853D-03 -0.26888337D-03 -0.26579219D-03  0.12094591D-02
  0.73517246D-03 -0.19446316D-02  0.29969239D-02 -0.23326059D-02  0.47274670D-02
 -0.33732606D-04  0.10330323D-03 -0.69570619D-04  0.29732304D-03 -0.18513627D-03
  0.15180201D-03
MO    4     MO 0.0        OCC NO =    2.0000000  ORB. ENERGY =    0.000000
  0.11730953D+00  0.21864567D+00  0.37074446D+00  0.56108231D+00  0.69990596D+00
  0.60062344D+00  0.23000687D+00  0.23834625D-03  0.25572988D-02  0.94266849D-02
  0.27563074D-01  0.33214844D-01 -0.40010799D-01 -0.10913436D-01 -0.20663665D-01
 -0.24047164D-02  0.17091651D+01  0.16573152D+01  0.11180150D+01  0.88236080D-01
  0.85559316D-01  0.57717809D-01 -0.29868243D+00 -0.28962149D+00 -0.19537694D+00
  0.38599471D+00  0.18620378D-01 -0.64040086D-01  0.63779080D-01  0.20631193D-02
 -0.81956478D-02  0.20474009D-02  0.23965719D-04 -0.14556434D-03 -0.61664470D-02
 -0.22471219D-02  0.84135689D-02 -0.17397305D-02 -0.71232634D-01 -0.78397899D-02
 -0.43745440D-03 -0.18241862D-02  0.22616406D-02  0.45704477D-03 -0.18821247D-01
 -0.12520393D-02  0.14408017D-03 -0.24588522D-03  0.10180505D-03  0.13709930D-03
 -0.12847089D-02 -0.33485233D-04 -0.10232727D-01  0.38574330D-03 -0.69973326D-03
  0.18998502D-01 -0.90953161D-03  0.32298572D-02  0.11699679D-01 -0.24769830D-03
 -0.11306574D-02  0.77662221D-03 -0.44373075D-03 -0.14176696D-04 -0.13169791D-03
  0.66934277D-03 -0.69079686D-04 -0.38001130D-05  0.66184950D-03  0.11160977D-03
  0.39889384D-03 -0.51107871D-03  0.12379824D-02  0.22327522D-02  0.32921918D-02
  0.58160638D-02  0.16247488D-02  0.38934453D-04  0.24198508D-01  0.18752972D-02
 -0.34460106D-02  0.13081434D-01  0.18199900D-02 -0.93615317D-03  0.19927832D-02
  0.10306446D-03 -0.19613390D-03  0.56433714D-04  0.97630953D-03 -0.10327432D-02
  0.11422655D-01  0.96135681D-02 -0.77563939D-03 -0.14051358D-04  0.50453755D-04
 -0.36402397D-04  0.11787410D-02  0.83803883D-03 -0.97952710D-04  0.54681292D-02
  0.98619962D-02  0.14541508D-01  0.13372678D-01  0.27578148D-02  0.27184732D-04
  0.22166358D-01 -0.35131954D-02 -0.17563092D-03  0.12020507D-01 -0.26018091D-02
  0.42483907D-03  0.18730029D-02 -0.91653256D-04 -0.15165671D-03 -0.75741881D-03
  0.11660583D-02 -0.40863946D-03 -0.10933083D-01  0.85095831D-02 -0.15110687D-02
 -0.54875679D-04  0.52820734D-04  0.20549456D-05 -0.10846646D-02  0.67539592D-03
 -0.29872177D-04
MO    5     MO 0.0        OCC NO =    2.0000000  ORB. ENERGY =    0.000000
  0.12116080D+00  0.22582382D+00  0.38291602D+00  0.57950268D+00  0.72288391D+00
  0.62034194D+00  0.23755801D+00 -0.14226327D-02 -0.15263915D-01 -0.56265666D-01
 -0.16451751D+00 -0.19825159D+00  0.23881505D+00  0.16165589D+00  0.96349225D-01
  0.90795223D-02  0.16085088D+00  0.15597124D+00  0.10521728D+00 -0.17842877D+00
 -0.17301588D+00 -0.11671549D+00  0.78747399D+00  0.76358487D+00  0.51510985D+00
  0.36326267D-01 -0.37685803D-01  0.16768012D+00  0.60022996D-02 -0.41771288D-02
  0.23463258D-01  0.19268251D-03 -0.55417860D-04  0.40574400D-03  0.38701879D-02
  0.16318087D-01 -0.20188275D-01 -0.16372741D-03 -0.67037595D-02  0.17503937D-01
 -0.15239378D-02  0.67744901D-02 -0.52505523D-02  0.43012844D-04 -0.17712824D-02
  0.24057810D-02 -0.36666272D-03  0.61700859D-03 -0.25034587D-03  0.12902523D-04
 -0.12090497D-03  0.53784136D-04 -0.96301003D-03 -0.61286799D-03  0.30481433D-02
  0.17879640D-02  0.19562111D-02 -0.44368412D-02  0.11010661D-02 -0.11760715D-03
 -0.47075887D-02  0.73088531D-04 -0.41759852D-04  0.91228803D-05  0.15006015D-03
  0.62992377D-04  0.50639910D-04 -0.15124396D-03  0.62287179D-04 -0.78008551D-04
 -0.29893649D-03 -0.48098022D-04  0.47646504D-02  0.85932432D-02  0.12670732D-01
 -0.12714691D-01 -0.65739743D-02 -0.14932920D-03  0.22773407D-02  0.33423785D-02
  0.16821144D-01  0.12311041D-02 -0.52175895D-02  0.28277242D-02  0.18754240D-03
 -0.51927746D-03  0.41051324D-03 -0.14426664D-03 -0.27292870D-02  0.28735536D-02
  0.10749951D-02  0.90474050D-03  0.19538972D-02  0.99339859D-04 -0.19043663D-03
  0.91096772D-04  0.11093225D-03  0.78868496D-04  0.92149837D-04 -0.43821343D-02
 -0.79033597D-02 -0.11653499D-01 -0.27292721D-01 -0.85316577D-02 -0.11536258D-03
  0.20860934D-02  0.49154684D-04  0.95255272D-02  0.11312594D-02  0.63696160D-02
  0.49500639D-03  0.17626978D-03  0.45738341D-03  0.36277630D-03  0.13197416D-02
 -0.29735413D-02  0.16537997D-02 -0.10289210D-02  0.80084359D-03  0.22231138D-02
  0.15819178D-03 -0.19096908D-03  0.32777303D-04 -0.10207865D-03  0.63562044D-04
  0.92020093D-04
END DATA
 TOTAL ENERGY =    -76.464403031786 THE VIRIAL(-V/T)=   2.00633837
