 42
GAUSSIAN              5 MOL ORBITALS    126 PRIMITIVES        3 NUCLEI   B3LYP   B3LYP   B3LYP   B3LYP
  O    1    (CENTRE  1)   0.00000000  0.00000000 -0.08633025  CHARGE =  8.0
  H    2    (CENTRE  2)   0.00000000 -1.34807204 -1.09730160  CHARGE =  1.0
  H    3    (CENTRE  3)   0.00000000  1.44255835 -1.09730160  CHARGE =  1.0
CENTRE ASSIGNMENTS    1  1  1  1  1  1  1  1  1  1  1  1  1  1  1  1  1  1  1  1
CENTRE ASSIGNMENTS    1  1  1  1  1  1  1  1  1  1  1  1  1  1  1  1  1  1  1  1
CENTRE ASSIGNMENTS    1  1  1  1  1  1  1  1  1  1  1  1  1  1  1  1  1  1  1  1
CENTRE ASSIGNMENTS    1  1  1  1  1  1  1  1  1  1  1  1  2  2  2  2  2  2  2  2
CENTRE ASSIGNMENTS    2  2  2  2  2  2  2  2  2  2  2  2  2  2  2  2  2  2  2  3
CENTRE ASSIGNMENTS    3  3  3  3  3  3  3  3  3  3  3  3  3  3  3  3  3  3  3  3
CENTRE ASSIGNMENTS    3  3  3  3  3  3
TYPE ASSIGNMENTS      1  1  1  1  1  1  1  1  1  1  1  1  1  1  1  1  2  2  2  3
TYPE ASSIGNMENTS      3  3  4  4  4  2  3  4  2  3  4  2  3  4  5  6  7  8  9 10
TYPE ASSIGNMENTS      5  6  7  8  9 10  5  6  7  8  9 10 11 12 13 17 14 15 18 19
TYPE ASSIGNMENTS     16 20 11 12 13 17 14 15 18 19 16 20  1  1  1  1  1  1  2  3
TYPE ASSIGNMENTS      4  2  3  4  2  3  4  5  6  7  8  9 10  5  6  7  8  9 10  1
TYPE ASSIGNMENTS      1  1  1  1  1  2  3  4  2  3  4  2  3  4  5  6  7  8  9 10
TYPE ASSIGNMENTS      5  6  7  8  9 10
EXPONENTS  0.1533000D+05 0.2299000D+04 0.5224000D+03 0.1473000D+03 0.4755000D+02
EXPONENTS  0.1676000D+02 0.6207000D+01 0.5224000D+03 0.1473000D+03 0.4755000D+02
EXPONENTS  0.1676000D+02 0.6207000D+01 0.6882000D+00 0.1752000D+01 0.2384000D+00
EXPONENTS  0.7376000D-01 0.3446000D+02 0.7749000D+01 0.2280000D+01 0.3446000D+02
EXPONENTS  0.7749000D+01 0.2280000D+01 0.3446000D+02 0.7749000D+01 0.2280000D+01
EXPONENTS  0.7156000D+00 0.7156000D+00 0.7156000D+00 0.2140000D+00 0.2140000D+00
EXPONENTS  0.2140000D+00 0.5974000D-01 0.5974000D-01 0.5974000D-01 0.2314000D+01
EXPONENTS  0.2314000D+01 0.2314000D+01 0.2314000D+01 0.2314000D+01 0.2314000D+01
EXPONENTS  0.6450000D+00 0.6450000D+00 0.6450000D+00 0.6450000D+00 0.6450000D+00
EXPONENTS  0.6450000D+00 0.2140000D+00 0.2140000D+00 0.2140000D+00 0.2140000D+00
EXPONENTS  0.2140000D+00 0.2140000D+00 0.1428000D+01 0.1428000D+01 0.1428000D+01
EXPONENTS  0.1428000D+01 0.1428000D+01 0.1428000D+01 0.1428000D+01 0.1428000D+01
EXPONENTS  0.1428000D+01 0.1428000D+01 0.5000000D+00 0.5000000D+00 0.5000000D+00
EXPONENTS  0.5000000D+00 0.5000000D+00 0.5000000D+00 0.5000000D+00 0.5000000D+00
EXPONENTS  0.5000000D+00 0.5000000D+00 0.3387000D+02 0.5095000D+01 0.1159000D+01
EXPONENTS  0.3258000D+00 0.1027000D+00 0.2526000D-01 0.1407000D+01 0.1407000D+01
EXPONENTS  0.1407000D+01 0.3880000D+00 0.3880000D+00 0.3880000D+00 0.1020000D+00
EXPONENTS  0.1020000D+00 0.1020000D+00 0.1057000D+01 0.1057000D+01 0.1057000D+01
EXPONENTS  0.1057000D+01 0.1057000D+01 0.1057000D+01 0.2470000D+00 0.2470000D+00
EXPONENTS  0.2470000D+00 0.2470000D+00 0.2470000D+00 0.2470000D+00 0.3387000D+02
EXPONENTS  0.5095000D+01 0.1159000D+01 0.3258000D+00 0.1027000D+00 0.2526000D-01
EXPONENTS  0.1407000D+01 0.1407000D+01 0.1407000D+01 0.3880000D+00 0.3880000D+00
EXPONENTS  0.3880000D+00 0.1020000D+00 0.1020000D+00 0.1020000D+00 0.1057000D+01
EXPONENTS  0.1057000D+01 0.1057000D+01 0.1057000D+01 0.1057000D+01 0.1057000D+01
EXPONENTS  0.2470000D+00 0.2470000D+00 0.2470000D+00 0.2470000D+00 0.2470000D+00
EXPONENTS  0.2470000D+00
MO    1     MO 0.0        OCC NO =    2.0000000  ORB. ENERGY =    0.000000
 -0.90113852D-02 -0.16795740D-01 -0.28479538D-01 -0.43100752D-01 -0.53764791D-01
 -0.46138190D-01 -0.17668476D-01 -0.70426732D-03 -0.75563261D-02 -0.27854041D-01
 -0.81443582D-01 -0.98143476D-01  0.11822422D+00  0.72047437D-01 -0.12079617D-01
 -0.48539024D-02  0.55959956D-03  0.54262333D-03  0.36605050D-03  0.32182721D+00
  0.31206413D+00  0.21051662D+00 -0.13042277D+01 -0.12646622D+01 -0.85313364D+00
  0.12608644D-03  0.67609084D-01 -0.28145473D+00  0.20276176D-04  0.66912846D-02
 -0.30536059D-01  0.62722321D-06  0.63899812D-04 -0.62606451D-03 -0.46634697D-01
  0.12157087D-01  0.34477610D-01 -0.79566829D-06 -0.24206483D-04 -0.25556767D-01
 -0.61490244D-02 -0.38056528D-02  0.99546772D-02  0.28330030D-06 -0.55884256D-05
 -0.50251599D-02  0.99933517D-03 -0.15048829D-02  0.50554776D-03  0.56045773D-07
 -0.31394280D-06 -0.67088917D-04 -0.34116867D-05  0.19922049D-02  0.51928832D-04
  0.75630010D-05 -0.34080417D-02  0.17786406D-01  0.26720590D-05 -0.25685729D-02
 -0.17942193D-01  0.20751702D-06 -0.31794090D-07 -0.13296043D-03 -0.75814145D-03
 -0.19680125D-07 -0.30473646D-03 -0.40988542D-03  0.11506239D-06  0.70361774D-03
  0.26843098D-02 -0.20941190D-06  0.25673744D-01  0.46303655D-01  0.68274713D-01
  0.40635190D-01  0.30028124D-02  0.46208548D-04  0.91216197D-05  0.32221435D-01
  0.25673664D-02  0.49224549D-05  0.90377619D-02 -0.28751404D-02  0.72201018D-06
 -0.22855562D-03 -0.12287164D-02 -0.31071369D-02  0.71156306D-02 -0.40084937D-02
  0.44494392D-05  0.32434457D-05  0.59272199D-02  0.16919718D-03  0.93289117D-05
 -0.17852609D-03  0.48483167D-06  0.31262269D-06 -0.12468253D-02  0.40508342D-01
  0.73058463D-01  0.10772466D+00  0.68802597D-01  0.71447779D-02  0.20578516D-04
  0.82595436D-05 -0.39073615D-01  0.13114238D-01  0.44660504D-05 -0.12598081D-01
  0.23651043D-02  0.67690282D-06  0.19244850D-03 -0.10175660D-02 -0.60421523D-02
  0.87306063D-02 -0.26884540D-02 -0.41324195D-05  0.28044071D-05 -0.13938657D-01
  0.51776335D-04 -0.23580647D-04 -0.28195688D-04 -0.44696464D-06  0.25694642D-06
  0.72023289D-03
MO    2     MO 0.0        OCC NO =    2.0000000  ORB. ENERGY =    0.000000
 -0.52713577D-02 -0.98249441D-02 -0.16659573D-01 -0.25212493D-01 -0.31450597D-01
 -0.26989292D-01 -0.10335465D-01  0.27306713D-03  0.29298311D-02  0.10799909D-01
  0.31578301D-01  0.38053388D-01 -0.45839339D-01 -0.28978463D-01 -0.13291295D-01
 -0.10890413D-02  0.16766760D+01  0.16258117D+01  0.10967630D+01  0.45425097D+00
  0.44047064D+00  0.29713889D+00 -0.45436359D-01 -0.44057984D-01 -0.29721256D-01
  0.37778105D+00  0.89373691D-01 -0.10686080D-01  0.60751617D-01  0.64264990D-02
 -0.26952142D-02  0.18792905D-02  0.36311539D-04 -0.53092723D-04  0.26667994D-02
 -0.40498859D-02  0.13830865D-02 -0.23839868D-02 -0.72527630D-01 -0.42252278D-01
  0.37907145D-03 -0.63010782D-03  0.25103637D-03  0.84882629D-03 -0.16744079D-01
 -0.31860889D-02 -0.63372523D-04  0.32247116D-04  0.31125407D-04  0.16792473D-03
 -0.94063756D-03  0.82909290D-03 -0.10222119D-01  0.21688864D-02 -0.44914463D-03
  0.22660315D-01 -0.35900303D-02 -0.39362533D-03  0.80060415D-02 -0.29166288D-02
  0.17410592D-02  0.62176391D-03 -0.95261668D-04  0.54166407D-04  0.11281442D-03
 -0.58965728D-04 -0.45479464D-04  0.12259750D-03  0.34475073D-03 -0.11701976D-03
 -0.46104077D-03 -0.62744135D-03 -0.15018364D-01 -0.27086238D-01 -0.39938642D-01
 -0.24886902D-01 -0.19340771D-02  0.37911431D-04  0.27330259D-01 -0.11951419D-01
 -0.14112272D-01  0.14748693D-01 -0.27489195D-02 -0.43319441D-02  0.21632918D-02
  0.12424393D-03 -0.80126489D-04  0.29319640D-02 -0.15985075D-02 -0.13334565D-02
  0.13331440D-01  0.97180341D-02 -0.92167276D-02 -0.82663228D-04  0.11559033D-03
 -0.32927104D-04  0.14526560D-02  0.93668223D-03  0.96786604D-05  0.95441489D-02
  0.17213266D-01  0.25380950D-01  0.22496375D-01  0.36728066D-02 -0.24697516D-05
  0.24747301D-01 -0.58051379D-02  0.61714517D-02  0.13381211D-01 -0.35014761D-02
  0.30487309D-02  0.20281409D-02 -0.10711739D-03  0.51117944D-04 -0.23539330D-02
  0.19912028D-02  0.36273018D-03 -0.12381584D-01  0.84025837D-02 -0.65967100D-02
 -0.27320479D-04  0.24105386D-04  0.32150933D-05 -0.13391985D-02  0.76986464D-03
 -0.18954767D-03
MO    3     MO 0.0        OCC NO =    2.0000000  ORB. ENERGY =    0.000000
 -0.10585645D-01 -0.19729903D-01 -0.33454822D-01 -0.50630316D-01 -0.63157329D-01
 -0.54198384D-01 -0.20755102D-01 -0.98640128D-03 -0.10583438D-01 -0.39012547D-01
 -0.11407040D+00 -0.13746038D+00  0.16558559D+00  0.99877704D-01  0.78479175D-01
  0.79755509D-02 -0.20548692D+00 -0.19925319D+00 -0.13441502D+00  0.10026455D+01
  0.97222888D+00  0.65585986D+00  0.88328150D+00  0.85648594D+00  0.57778036D+00
 -0.46299383D-01  0.19788116D+00  0.18760135D+00 -0.74454828D-02  0.14013684D-01
  0.24172753D-01 -0.23031856D-03  0.72264134D-04  0.47748270D-03  0.10761850D-01
  0.14580304D-01 -0.25342154D-01  0.29217218D-03  0.88887053D-02 -0.93431316D-01
 -0.16544468D-03  0.63613802D-02 -0.61959355D-02 -0.10402886D-03  0.20520895D-02
 -0.74658413D-02 -0.60956808D-03  0.84903032D-03 -0.23946223D-03 -0.20580204D-04
  0.11528090D-03  0.19461030D-02  0.12527833D-02  0.49243083D-02  0.16860150D-02
 -0.27771605D-02 -0.81439580D-02 -0.67529923D-02 -0.98118943D-03 -0.66289669D-02
  0.16949474D-02 -0.76200977D-04  0.11674901D-04  0.16879412D-03  0.11081544D-03
  0.72266111D-05 -0.19950787D-03  0.15781320D-03 -0.42251314D-04 -0.30687450D-03
 -0.49025953D-03  0.76896782D-04 -0.30766357D-01 -0.55488392D-01 -0.81817601D-01
 -0.77063871D-01 -0.12111247D-01 -0.51431351D-04 -0.33494907D-02 -0.24135276D-01
 -0.12131728D-01 -0.18075427D-02 -0.13073872D-01 -0.56140274D-02 -0.26512467D-03
 -0.18089610D-03  0.59595395D-03  0.66630708D-02 -0.75901508D-02  0.92707999D-03
 -0.16338496D-02 -0.11910046D-02 -0.17007847D-01 -0.66697733D-04 -0.13014826D-04
  0.79712559D-04 -0.17803189D-03 -0.11479615D-03  0.37202067D-03  0.23179280D-01
  0.41804785D-01  0.61641131D-01  0.29052909D-01  0.43701876D-04 -0.15271913D-03
 -0.30329333D-02 -0.15675383D-01  0.31340984D-01 -0.16399494D-02 -0.89074606D-03
  0.10595235D-01 -0.24856109D-03  0.29530284D-03  0.82524141D-03 -0.48569056D-02
  0.48635212D-03  0.43705534D-02  0.15174389D-02 -0.10297881D-02 -0.17787050D-01
  0.10706956D-03 -0.25416569D-03  0.14709613D-03  0.16412698D-03 -0.94351627D-04
 -0.68957473D-03
MO    4     MO 0.0        OCC NO =    2.0000000  ORB. ENERGY =    0.000000
  0.17279255D+00  0.32205690D+00  0.54609273D+00  0.82645327D+00  0.10309353D+01
  0.88469588D+00  0.33879152D+00  0.11955860D-02  0.12827853D-01  0.47285880D-01
  0.13826114D+00  0.16661140D+00 -0.20070108D+00 -0.10345066D+00 -0.66870114D-01
 -0.59037039D-02 -0.54530908D+00 -0.52876638D+00 -0.35670268D+00  0.90660267D+00
  0.87909963D+00  0.59303542D+00 -0.43802881D+00 -0.42474061D+00 -0.28652750D+00
 -0.12286658D+00  0.17761490D+00 -0.96131560D-01 -0.19758384D-01  0.12691810D-01
 -0.16440844D-01 -0.61120583D-03  0.69861010D-04 -0.32523712D-03  0.33824922D-02
 -0.16199780D-01  0.12817288D-01  0.77534933D-03  0.23588323D-01 -0.83697303D-01
  0.12613757D-02 -0.41475169D-02  0.28861413D-02 -0.27606567D-03  0.54457142D-02
 -0.59596734D-02  0.23687952D-04 -0.19886671D-03  0.17517876D-03 -0.54614534D-04
  0.30592565D-03  0.16524710D-02  0.33245626D-02  0.42796462D-02 -0.16189572D-02
 -0.73698649D-02 -0.68738608D-02  0.17174156D-02 -0.26038227D-02 -0.59650777D-02
  0.31394561D-02 -0.20221766D-03  0.30982165D-04  0.88414956D-04  0.23163857D-03
  0.19177555D-04 -0.54734528D-04  0.19197132D-03 -0.11212405D-03 -0.21051034D-03
 -0.88688703D-03  0.20406415D-03 -0.31868614D-01 -0.57476358D-01 -0.84748856D-01
 -0.43777403D-01 -0.12400448D-02  0.12146877D-03 -0.88886812D-02 -0.26596475D-01
 -0.36335807D-01 -0.47967503D-02 -0.37593741D-02 -0.10643611D-01 -0.70357223D-03
  0.38345502D-03 -0.46334130D-03  0.65746845D-02 -0.24660281D-02 -0.41086564D-02
 -0.43358140D-02 -0.31606179D-02 -0.21806842D-01 -0.20134525D-03  0.32602843D-03
 -0.12468318D-03 -0.47245054D-03 -0.30463925D-03 -0.12631092D-03  0.17336794D-01
  0.31267622D-01  0.46104090D-01  0.50943189D-01  0.10221835D-01  0.51686297D-04
 -0.80486199D-02 -0.91369532D-02  0.50534713D-02 -0.43520011D-02 -0.89815331D-02
  0.43664587D-02 -0.65961678D-03 -0.40999572D-03 -0.16169251D-03 -0.42444341D-02
  0.47980688D-02 -0.55363470D-03  0.40268901D-02 -0.27327911D-02 -0.10434931D-01
 -0.11432204D-03  0.16680894D-03 -0.52486895D-04  0.43555052D-03 -0.25038479D-03
 -0.27625406D-03
MO    5     MO 0.0        OCC NO =    2.0000000  ORB. ENERGY =    0.000000
  0.47878469D+00  0.89237594D+00  0.15131488D+01  0.22899898D+01  0.28565818D+01
  0.24513722D+01  0.93874531D+00 -0.38816240D-04 -0.41647278D-03 -0.15351971D-02
 -0.44888262D-02 -0.54092539D-02  0.65160195D-02  0.60068560D-01  0.92703166D-02
  0.11778845D-02  0.21072841D+00  0.20433567D+00  0.13784364D+00 -0.29138261D+00
 -0.28254311D+00 -0.19060191D+00  0.92790533D-01  0.89975605D-01  0.60697011D-01
  0.47480371D-01 -0.58708527D-01  0.19944184D-01  0.76353996D-02 -0.46425311D-02
  0.25527274D-02  0.23619345D-03 -0.37836699D-04  0.48077667D-04 -0.18475859D-02
  0.44878537D-02 -0.26402677D-02 -0.29962481D-03 -0.91154354D-02  0.28557469D-01
  0.10299449D-03  0.49408655D-03 -0.59708105D-03  0.10668239D-03 -0.21044335D-02
  0.26615026D-02 -0.31533714D-04  0.60717793D-04 -0.29184079D-04  0.21105157D-04
 -0.11822144D-03 -0.42270760D-03 -0.12847389D-02 -0.13857826D-02  0.10281618D-02
  0.28479993D-02  0.28442742D-02  0.94386724D-03  0.10062173D-02  0.13130737D-02
 -0.40283528D-02  0.78144685D-04 -0.11972700D-04 -0.37235839D-04 -0.18812483D-03
 -0.74109451D-05  0.26486063D-04 -0.32370891D-03  0.43329046D-04  0.85221453D-04
  0.88808339D-03 -0.78858239D-04  0.69579376D-02  0.12548927D-01  0.18503385D-01
  0.94752288D-02  0.36174441D-03 -0.37590999D-04  0.34349284D-02  0.26472130D-02
  0.64211271D-02  0.18536489D-02 -0.62896444D-03  0.14578424D-02  0.27188738D-03
 -0.17206596D-03  0.22921786D-04  0.19073858D-03 -0.10830379D-02  0.89229934D-03
  0.16755253D-02  0.12213844D-02  0.30271407D-03  0.71200011D-04 -0.88743939D-04
  0.17543928D-04  0.18257307D-03  0.11772433D-03 -0.37789702D-04 -0.85805431D-02
 -0.15475363D-01 -0.22818413D-01 -0.19019072D-01 -0.27479223D-02  0.44259828D-05
  0.31102964D-02  0.73632750D-02 -0.54999605D-02  0.16817806D-02  0.37827961D-02
 -0.26328002D-02  0.25490130D-03  0.78774160D-04 -0.17723678D-04  0.30257203D-02
 -0.29759548D-02 -0.49765533D-04 -0.15561452D-02  0.10560556D-02  0.81767646D-02
  0.25811246D-04 -0.79202489D-05 -0.17890997D-04 -0.16831348D-03  0.96758317D-04
  0.11894249D-03
END DATA
 TOTAL ENERGY =    -76.459910799729 THE VIRIAL(-V/T)=   2.00317655
