 42
GAUSSIAN              5 MOL ORBITALS    126 PRIMITIVES        3 NUCLEI   B3LYP   B3LYP   B3LYP   B3LYP
  O    1    (CENTRE  1)   0.00000000  0.00000000  0.10264236  CHARGE =  8.0
  H    2    (CENTRE  2)   0.00000000 -1.53704465 -1.09730160  CHARGE =  1.0
  H    3    (CENTRE  3)   0.00000000  1.44255835 -1.09730160  CHARGE =  1.0
CENTRE ASSIGNMENTS    1  1  1  1  1  1  1  1  1  1  1  1  1  1  1  1  1  1  1  1
CENTRE ASSIGNMENTS    1  1  1  1  1  1  1  1  1  1  1  1  1  1  1  1  1  1  1  1
CENTRE ASSIGNMENTS    1  1  1  1  1  1  1  1  1  1  1  1  1  1  1  1  1  1  1  1
CENTRE ASSIGNMENTS    1  1  1  1  1  1  1  1  1  1  1  1  2  2  2  2  2  2  2  2
CENTRE ASSIGNMENTS    2  2  2  2  2  2  2  2  2  2  2  2  2  2  2  2  2  2  2  3
CENTRE ASSIGNMENTS    3  3  3  3  3  3  3  3  3  3  3  3  3  3  3  3  3  3  3  3
CENTRE ASSIGNMENTS    3  3  3  3  3  3
TYPE ASSIGNMENTS      1  1  1  1  1  1  1  1  1  1  1  1  1  1  1  1  2  2  2  3
TYPE ASSIGNMENTS      3  3  4  4  4  2  3  4  2  3  4  2  3  4  5  6  7  8  9 10
TYPE ASSIGNMENTS      5  6  7  8  9 10  5  6  7  8  9 10 11 12 13 17 14 15 18 19
TYPE ASSIGNMENTS     16 20 11 12 13 17 14 15 18 19 16 20  1  1  1  1  1  1  2  3
TYPE ASSIGNMENTS      4  2  3  4  2  3  4  5  6  7  8  9 10  5  6  7  8  9 10  1
TYPE ASSIGNMENTS      1  1  1  1  1  2  3  4  2  3  4  2  3  4  5  6  7  8  9 10
TYPE ASSIGNMENTS      5  6  7  8  9 10
EXPONENTS  0.1533000D+05 0.2299000D+04 0.5224000D+03 0.1473000D+03 0.4755000D+02
EXPONENTS  0.1676000D+02 0.6207000D+01 0.5224000D+03 0.1473000D+03 0.4755000D+02
EXPONENTS  0.1676000D+02 0.6207000D+01 0.6882000D+00 0.1752000D+01 0.2384000D+00
EXPONENTS  0.7376000D-01 0.3446000D+02 0.7749000D+01 0.2280000D+01 0.3446000D+02
EXPONENTS  0.7749000D+01 0.2280000D+01 0.3446000D+02 0.7749000D+01 0.2280000D+01
EXPONENTS  0.7156000D+00 0.7156000D+00 0.7156000D+00 0.2140000D+00 0.2140000D+00
EXPONENTS  0.2140000D+00 0.5974000D-01 0.5974000D-01 0.5974000D-01 0.2314000D+01
EXPONENTS  0.2314000D+01 0.2314000D+01 0.2314000D+01 0.2314000D+01 0.2314000D+01
EXPONENTS  0.6450000D+00 0.6450000D+00 0.6450000D+00 0.6450000D+00 0.6450000D+00
EXPONENTS  0.6450000D+00 0.2140000D+00 0.2140000D+00 0.2140000D+00 0.2140000D+00
EXPONENTS  0.2140000D+00 0.2140000D+00 0.1428000D+01 0.1428000D+01 0.1428000D+01
EXPONENTS  0.1428000D+01 0.1428000D+01 0.1428000D+01 0.1428000D+01 0.1428000D+01
EXPONENTS  0.1428000D+01 0.1428000D+01 0.5000000D+00 0.5000000D+00 0.5000000D+00
EXPONENTS  0.5000000D+00 0.5000000D+00 0.5000000D+00 0.5000000D+00 0.5000000D+00
EXPONENTS  0.5000000D+00 0.5000000D+00 0.3387000D+02 0.5095000D+01 0.1159000D+01
EXPONENTS  0.3258000D+00 0.1027000D+00 0.2526000D-01 0.1407000D+01 0.1407000D+01
EXPONENTS  0.1407000D+01 0.3880000D+00 0.3880000D+00 0.3880000D+00 0.1020000D+00
EXPONENTS  0.1020000D+00 0.1020000D+00 0.1057000D+01 0.1057000D+01 0.1057000D+01
EXPONENTS  0.1057000D+01 0.1057000D+01 0.1057000D+01 0.2470000D+00 0.2470000D+00
EXPONENTS  0.2470000D+00 0.2470000D+00 0.2470000D+00 0.2470000D+00 0.3387000D+02
EXPONENTS  0.5095000D+01 0.1159000D+01 0.3258000D+00 0.1027000D+00 0.2526000D-01
EXPONENTS  0.1407000D+01 0.1407000D+01 0.1407000D+01 0.3880000D+00 0.3880000D+00
EXPONENTS  0.3880000D+00 0.1020000D+00 0.1020000D+00 0.1020000D+00 0.1057000D+01
EXPONENTS  0.1057000D+01 0.1057000D+01 0.1057000D+01 0.1057000D+01 0.1057000D+01
EXPONENTS  0.2470000D+00 0.2470000D+00 0.2470000D+00 0.2470000D+00 0.2470000D+00
EXPONENTS  0.2470000D+00
MO    1     MO 0.0        OCC NO =    2.0000000  ORB. ENERGY =    0.000000
  0.10378781D+00  0.19344341D+00  0.32801048D+00  0.49640898D+00  0.61923108D+00
  0.53139239D+00  0.20349505D+00 -0.26148193D-03 -0.28055295D-02 -0.10341710D-01
 -0.30238553D-01 -0.36438927D-01  0.43894549D-01  0.38095820D-01 -0.22489949D-01
 -0.61832601D-02  0.99819430D+00  0.96791270D+00  0.65294819D+00  0.24353529D-01
  0.23614731D-01  0.15930358D-01 -0.11680992D+01 -0.11326633D+01 -0.76408798D+00
  0.22552520D+00  0.32969067D-02 -0.25604285D+00  0.37806381D-01 -0.48909379D-03
 -0.31517086D-01  0.12491798D-02 -0.61741980D-05 -0.59272785D-03 -0.35471502D-01
  0.44197477D-02  0.31051755D-01  0.10933504D-02 -0.38456127D-01 -0.55964777D-02
 -0.58791488D-02 -0.35285527D-02  0.94077015D-02 -0.15654795D-03 -0.10772410D-01
  0.59176820D-03  0.36588876D-03 -0.87973092D-03  0.51384216D-03 -0.77510952D-04
 -0.83344227D-03  0.33073382D-03 -0.57997704D-02 -0.19171222D-03 -0.82981132D-03
  0.11539357D-01  0.24123440D-03  0.15512439D-01  0.58599539D-02  0.33390225D-03
 -0.13023005D-01 -0.57839166D-03 -0.35105733D-03  0.87645615D-04 -0.55827116D-03
  0.59511809D-03  0.88427574D-04  0.56993417D-03  0.45805391D-03 -0.35136442D-03
  0.11048793D-02  0.26548639D-03  0.23426084D-01  0.42249908D-01  0.62297464D-01
  0.42170277D-01  0.74494876D-02  0.96910815D-04  0.11866620D-01  0.19607440D-01
  0.23965193D-02  0.65149004D-02  0.94000935D-02  0.66732250D-03  0.10475946D-02
  0.33824802D-03 -0.60231431D-03 -0.26219266D-02  0.47123554D-02 -0.20904288D-02
  0.61278286D-02  0.45902874D-02  0.55515948D-02 -0.26296292D-03  0.33017087D-03
 -0.67207944D-04  0.58074463D-03  0.34145874D-03  0.13685001D-03  0.26059566D-01
  0.46999500D-01  0.69300736D-01  0.47350443D-01  0.73263851D-02  0.76255791D-04
  0.12968585D-01 -0.22892911D-01  0.51109559D-02  0.70780805D-02 -0.10175330D-01
  0.14036587D-02  0.11143339D-02 -0.25183179D-03 -0.66626802D-03 -0.33441696D-02
  0.51980799D-02 -0.18539103D-02 -0.63929594D-02  0.51337022D-02 -0.82020146D-02
 -0.17700263D-03  0.28217289D-03 -0.10517025D-03 -0.63759130D-03  0.42900903D-03
  0.29653942D-04
MO    2     MO 0.0        OCC NO =    2.0000000  ORB. ENERGY =    0.000000
  0.43507560D-01  0.81090937D-01  0.13750108D+00  0.20809326D+00  0.25957994D+00
  0.22275821D+00  0.85304560D-01  0.99519838D-04  0.10677826D-02  0.39360475D-02
  0.11508772D-01  0.13868630D-01 -0.16706235D-01 -0.43276410D-02  0.22675025D-01
  0.49632240D-02  0.14144830D+01  0.13715727D+01  0.92525487D+00 -0.31463022D+00
 -0.30508548D+00 -0.20580886D+00  0.87315872D+00  0.84667024D+00  0.57115874D+00
  0.31957864D+00 -0.65874369D-01  0.19103727D+00  0.53573222D-01 -0.66487758D-02
  0.23524884D-01  0.17701399D-02 -0.77889042D-04  0.44095205D-03  0.24871542D-01
 -0.16423681D-02 -0.23229174D-01  0.15493232D-02 -0.54493939D-01  0.31302960D-01
  0.39786149D-02  0.29966243D-02 -0.69752392D-02 -0.22183499D-03 -0.15264955D-01
  0.42780417D-02 -0.29721398D-03  0.67051353D-03 -0.37329955D-03 -0.10983626D-03
 -0.11810225D-02 -0.18732137D-03 -0.82185170D-02 -0.11628836D-02  0.83578395D-03
  0.16351751D-01  0.34024119D-02 -0.10940668D-01  0.83037995D-02  0.86238836D-04
  0.84333161D-02 -0.81960516D-03 -0.49746291D-03 -0.85640081D-04  0.39860911D-03
  0.84330721D-03  0.23381740D-03 -0.42830441D-03  0.64908153D-03  0.23102847D-04
 -0.76752292D-03  0.37620532D-03 -0.90927936D-02 -0.16399228D-01 -0.24180652D-01
 -0.17746249D-01 -0.39543617D-02 -0.10556168D-03  0.16815497D-01 -0.10465789D-01
  0.37337955D-02  0.92318861D-02 -0.57839826D-02  0.16221547D-02  0.14844853D-02
 -0.34301971D-03  0.48202830D-03  0.84384185D-03 -0.31691900D-02  0.23253482D-02
  0.86833892D-02  0.65046291D-02 -0.83799187D-03  0.14910792D-03 -0.25990669D-03
  0.11079877D-03  0.82293942D-03  0.48386130D-03  0.95180295D-04 -0.25690191D-01
 -0.46333318D-01 -0.68318450D-01 -0.47902553D-01 -0.73602057D-02 -0.34129785D-04
  0.18377027D-01  0.19182621D-01 -0.80361052D-02  0.10029936D-01  0.87457021D-02
 -0.30959533D-02  0.15790578D-02  0.13057792D-03  0.45020290D-03  0.37989692D-02
 -0.43003040D-02  0.50133477D-03 -0.90590906D-02  0.72746706D-02  0.98875460D-02
  0.16256642D-03 -0.17932371D-03  0.16757293D-04 -0.90349352D-03  0.60792373D-03
  0.12426502D-03
MO    3     MO 0.0        OCC NO =    2.0000000  ORB. ENERGY =    0.000000
 -0.28242934D+00 -0.52640185D+00 -0.89258830D+00 -0.13508375D+01 -0.16850633D+01
 -0.14460350D+01 -0.55375458D+00 -0.10694592D-03 -0.11474596D-02 -0.42297520D-02
 -0.12367547D-01 -0.14903495D-01  0.17952839D-01 -0.21921117D-01  0.36425673D-02
  0.52250517D-03  0.45018871D+00  0.43653162D+00  0.29448165D+00  0.11488647D+01
  0.11140123D+01  0.75150611D+00  0.51161953D-01  0.49609885D-01  0.33466535D-01
  0.10171256D+00  0.24577616D+00  0.11672007D-01  0.17050795D-01  0.27185544D-01
  0.24618424D-02  0.56338393D-03  0.32367883D-03  0.48308931D-04  0.12205216D-02
 -0.47271622D-03 -0.74780534D-03  0.49310441D-03 -0.17343832D-01 -0.10594703D+00
  0.13360585D-03  0.17569133D-03 -0.30929718D-03 -0.70603610D-04 -0.48583902D-02
 -0.18286089D-01  0.56783743D-04 -0.50750672D-05 -0.51708675D-04 -0.34957679D-04
 -0.37588504D-03 -0.22655647D-03 -0.26157144D-02  0.49837727D-02 -0.59491019D-04
  0.52042858D-02 -0.13937905D-01 -0.11584430D-02  0.26428573D-02 -0.10134129D-02
  0.13369161D-02 -0.26085643D-03 -0.15832794D-03  0.86635821D-04  0.16515226D-04
  0.26840010D-03 -0.11243380D-02  0.21190181D-04  0.20658373D-03  0.86443053D-03
 -0.70735860D-04  0.11973518D-03 -0.28721723D-01 -0.51800810D-01 -0.76380264D-01
 -0.51792431D-01 -0.74494022D-02  0.10128112D-03  0.53518823D-02 -0.11998027D-01
 -0.17063530D-01  0.29382402D-02 -0.48713065D-02 -0.74393508D-02  0.47246841D-03
  0.22800418D-03 -0.11003822D-03  0.41138033D-02 -0.14947996D-02 -0.26190036D-02
  0.27636696D-02  0.20702338D-02 -0.11939489D-01  0.19569955D-03  0.18016352D-04
 -0.21371590D-03  0.26191762D-03  0.15399895D-03 -0.75335767D-03  0.28315564D-01
  0.51068287D-01  0.75300159D-01  0.49803218D-01  0.59145473D-02 -0.12180671D-03
  0.58488720D-02 -0.12410773D-01  0.21070373D-01  0.31922362D-02 -0.41629711D-02
  0.85308115D-02  0.50256805D-03  0.37032047D-03  0.17495147D-03 -0.51701120D-02
  0.14145902D-02  0.37555218D-02 -0.28832444D-02  0.23153156D-02 -0.15266004D-01
 -0.92826663D-04 -0.15961285D-03  0.25243951D-03 -0.28755565D-03  0.19348440D-03
 -0.53891371D-03
MO    4     MO 0.0        OCC NO =    2.0000000  ORB. ENERGY =    0.000000
  0.39732970D+00  0.74055723D+00  0.12557188D+01  0.19003969D+01  0.23705954D+01
  0.20343235D+01  0.77903784D+00  0.10848714D-03  0.11639958D-02  0.42907076D-02
  0.12545777D-01  0.15118272D-01 -0.18211560D-01  0.36889596D-01  0.40432753D-02
  0.14779975D-02 -0.12067393D+00 -0.11701312D+00 -0.78936362D-01  0.83328521D+00
  0.80800636D+00  0.54507631D+00  0.29401826D+00  0.28509881D+00  0.19232598D+00
 -0.27264244D-01  0.17962375D+00  0.67713067D-01 -0.45704977D-02  0.20313095D-01
  0.91499586D-02 -0.15101613D-03  0.24913492D-03  0.16938152D-03  0.73861596D-02
  0.53708756D-04 -0.74398683D-02 -0.13217757D-03  0.46490469D-02 -0.76784890D-01
  0.22045148D-02  0.16689324D-03 -0.23714080D-02  0.18925431D-04  0.13023007D-02
 -0.14082833D-01  0.51992431D-04  0.11036668D-03 -0.16235911D-03  0.93704718D-05
  0.10075669D-03 -0.31218235D-03  0.70114717D-03  0.36502076D-02  0.30387729D-03
 -0.13950186D-02 -0.10707986D-01 -0.37982334D-02 -0.70842289D-03 -0.24263665D-03
  0.28866015D-02  0.69923058D-04  0.42440104D-04  0.54494375D-04 -0.19993195D-05
 -0.71945153D-04 -0.85894299D-03 -0.49444091D-03 -0.55375158D-04  0.69545987D-03
  0.50043887D-03 -0.32095242D-04 -0.26945931D-01 -0.48598097D-01 -0.71657865D-01
 -0.46931002D-01 -0.68589981D-02  0.66590703D-04 -0.14345822D-02 -0.13435023D-01
 -0.13031031D-01 -0.78760083D-03 -0.54483599D-02 -0.53868093D-02 -0.12664605D-03
  0.11982145D-03  0.59935895D-04  0.40615530D-02 -0.26043160D-02 -0.14572369D-02
 -0.74080686D-03 -0.55493008D-03 -0.11333681D-01  0.18989985D-03 -0.53990000D-04
 -0.13590984D-03 -0.70207514D-04 -0.41279708D-04 -0.56322565D-03  0.14100523D-01
  0.25430873D-01  0.37497808D-01  0.24979442D-01  0.25477126D-02 -0.10532903D-03
 -0.15678012D-02 -0.29780608D-02  0.13648608D-01 -0.85568494D-03 -0.28546812D-03
  0.55828710D-02 -0.13471431D-03  0.37276626D-03  0.23766493D-03 -0.20396549D-02
 -0.97506418D-03  0.30147191D-02  0.77285911D-03 -0.62062471D-03 -0.64134835D-02
 -0.20263359D-04 -0.19789533D-03  0.21815869D-03  0.77079834D-04 -0.51863858D-04
 -0.36590197D-03
MO    5     MO 0.0        OCC NO =    2.0000000  ORB. ENERGY =    0.000000
 -0.94829921D-01 -0.17674738D+00 -0.29970002D+00 -0.45356411D+00 -0.56578548D+00
 -0.48552812D+00 -0.18593148D+00 -0.17291276D-02 -0.18552405D-01 -0.68387658D-01
 -0.19996150D+00 -0.24096333D+00  0.29026587D+00  0.16755417D+00  0.10267423D+00
  0.86244960D-02 -0.10495354D+00 -0.10176963D+00 -0.68653188D-01 -0.38869110D-01
 -0.37689961D-01 -0.25425425D-01  0.53957612D+00  0.52320733D+00  0.35295258D+00
 -0.23712485D-01 -0.87417238D-02  0.11168624D+00 -0.39750912D-02 -0.10045127D-02
  0.17336302D-01 -0.13134300D-03 -0.65106353D-05  0.31794868D-03 -0.54207666D-02
  0.17811428D-01 -0.12390662D-01 -0.11495857D-03  0.40434077D-02  0.24859510D-02
 -0.42564468D-02  0.73884859D-02 -0.31320391D-02  0.16459983D-04  0.11326478D-02
  0.10400508D-02 -0.34193021D-03  0.52103533D-03 -0.17910512D-03  0.81497645D-05
  0.87630949D-04  0.81256830D-05  0.60980754D-03 -0.31530001D-03  0.27672916D-02
 -0.12132872D-02  0.67591809D-03 -0.51576531D-03 -0.61613544D-03  0.26998193D-03
 -0.77861095D-02  0.60814062D-04  0.36911359D-04 -0.11649642D-04  0.13566929D-03
 -0.62572736D-04  0.15708283D-03  0.30757828D-03 -0.48161342D-04 -0.12213391D-03
 -0.71458616D-03 -0.27914140D-04  0.80383909D-02  0.14497569D-01  0.21376657D-01
 -0.62947638D-02 -0.65102718D-02 -0.14310641D-03 -0.12476967D-02  0.94159204D-02
  0.14904494D-01 -0.68499874D-03 -0.31800524D-02  0.24921839D-02 -0.11014765D-03
 -0.56570494D-03  0.22699071D-03 -0.58814581D-03 -0.13109425D-02  0.18990883D-02
 -0.64430070D-03 -0.48263840D-03  0.33243425D-02  0.12966022D-03 -0.22327006D-03
  0.93609839D-04 -0.61061462D-04 -0.35902130D-04  0.45109664D-06  0.68597268D-02
  0.12371800D-01  0.18242212D-01 -0.10346736D-01 -0.70746581D-02 -0.13609303D-03
 -0.13635611D-02 -0.90125280D-02  0.14991447D-01 -0.74421341D-03  0.35636417D-02
  0.17981169D-02 -0.11716485D-03  0.52455714D-03  0.20790771D-03 -0.43777821D-03
 -0.13293122D-02  0.17670904D-02  0.67217744D-03 -0.53977487D-03 -0.28591737D-02
  0.13263167D-03 -0.19019918D-03  0.57567507D-04  0.67038513D-04 -0.45107465D-04
  0.65868463D-04
END DATA
 TOTAL ENERGY =    -76.461475299424 THE VIRIAL(-V/T)=   2.00809213
