 42
GAUSSIAN              5 MOL ORBITALS    126 PRIMITIVES        3 NUCLEI   B3LYP   B3LYP   B3LYP   B3LYP
  O    1    (CENTRE  1)   0.00000000  0.00000000 -0.08633025  CHARGE =  8.0
  H    2    (CENTRE  2)   0.00000000 -1.53704465 -1.09730160  CHARGE =  1.0
  H    3    (CENTRE  3)   0.00000000  1.44255835 -1.09730160  CHARGE =  1.0
CENTRE ASSIGNMENTS    1  1  1  1  1  1  1  1  1  1  1  1  1  1  1  1  1  1  1  1
CENTRE ASSIGNMENTS    1  1  1  1  1  1  1  1  1  1  1  1  1  1  1  1  1  1  1  1
CENTRE ASSIGNMENTS    1  1  1  1  1  1  1  1  1  1  1  1  1  1  1  1  1  1  1  1
CENTRE ASSIGNMENTS    1  1  1  1  1  1  1  1  1  1  1  1  2  2  2  2  2  2  2  2
CENTRE ASSIGNMENTS    2  2  2  2  2  2  2  2  2  2  2  2  2  2  2  2  2  2  2  3
CENTRE ASSIGNMENTS    3  3  3  3  3  3  3  3  3  3  3  3  3  3  3  3  3  3  3  3
CENTRE ASSIGNMENTS    3  3  3  3  3  3
TYPE ASSIGNMENTS      1  1  1  1  1  1  1  1  1  1  1  1  1  1  1  1  2  2  2  3
TYPE ASSIGNMENTS      3  3  4  4  4  2  3  4  2  3  4  2  3  4  5  6  7  8  9 10
TYPE ASSIGNMENTS      5  6  7  8  9 10  5  6  7  8  9 10 11 12 13 17 14 15 18 19
TYPE ASSIGNMENTS     16 20 11 12 13 17 14 15 18 19 16 20  1  1  1  1  1  1  2  3
TYPE ASSIGNMENTS      4  2  3  4  2  3  4  5  6  7  8  9 10  5  6  7  8  9 10  1
TYPE ASSIGNMENTS      1  1  1  1  1  2  3  4  2  3  4  2  3  4  5  6  7  8  9 10
TYPE ASSIGNMENTS      5  6  7  8  9 10
EXPONENTS  0.1533000D+05 0.2299000D+04 0.5224000D+03 0.1473000D+03 0.4755000D+02
EXPONENTS  0.1676000D+02 0.6207000D+01 0.5224000D+03 0.1473000D+03 0.4755000D+02
EXPONENTS  0.1676000D+02 0.6207000D+01 0.6882000D+00 0.1752000D+01 0.2384000D+00
EXPONENTS  0.7376000D-01 0.3446000D+02 0.7749000D+01 0.2280000D+01 0.3446000D+02
EXPONENTS  0.7749000D+01 0.2280000D+01 0.3446000D+02 0.7749000D+01 0.2280000D+01
EXPONENTS  0.7156000D+00 0.7156000D+00 0.7156000D+00 0.2140000D+00 0.2140000D+00
EXPONENTS  0.2140000D+00 0.5974000D-01 0.5974000D-01 0.5974000D-01 0.2314000D+01
EXPONENTS  0.2314000D+01 0.2314000D+01 0.2314000D+01 0.2314000D+01 0.2314000D+01
EXPONENTS  0.6450000D+00 0.6450000D+00 0.6450000D+00 0.6450000D+00 0.6450000D+00
EXPONENTS  0.6450000D+00 0.2140000D+00 0.2140000D+00 0.2140000D+00 0.2140000D+00
EXPONENTS  0.2140000D+00 0.2140000D+00 0.1428000D+01 0.1428000D+01 0.1428000D+01
EXPONENTS  0.1428000D+01 0.1428000D+01 0.1428000D+01 0.1428000D+01 0.1428000D+01
EXPONENTS  0.1428000D+01 0.1428000D+01 0.5000000D+00 0.5000000D+00 0.5000000D+00
EXPONENTS  0.5000000D+00 0.5000000D+00 0.5000000D+00 0.5000000D+00 0.5000000D+00
EXPONENTS  0.5000000D+00 0.5000000D+00 0.3387000D+02 0.5095000D+01 0.1159000D+01
EXPONENTS  0.3258000D+00 0.1027000D+00 0.2526000D-01 0.1407000D+01 0.1407000D+01
EXPONENTS  0.1407000D+01 0.3880000D+00 0.3880000D+00 0.3880000D+00 0.1020000D+00
EXPONENTS  0.1020000D+00 0.1020000D+00 0.1057000D+01 0.1057000D+01 0.1057000D+01
EXPONENTS  0.1057000D+01 0.1057000D+01 0.1057000D+01 0.2470000D+00 0.2470000D+00
EXPONENTS  0.2470000D+00 0.2470000D+00 0.2470000D+00 0.2470000D+00 0.3387000D+02
EXPONENTS  0.5095000D+01 0.1159000D+01 0.3258000D+00 0.1027000D+00 0.2526000D-01
EXPONENTS  0.1407000D+01 0.1407000D+01 0.1407000D+01 0.3880000D+00 0.3880000D+00
EXPONENTS  0.3880000D+00 0.1020000D+00 0.1020000D+00 0.1020000D+00 0.1057000D+01
EXPONENTS  0.1057000D+01 0.1057000D+01 0.1057000D+01 0.1057000D+01 0.1057000D+01
EXPONENTS  0.2470000D+00 0.2470000D+00 0.2470000D+00 0.2470000D+00 0.2470000D+00
EXPONENTS  0.2470000D+00
MO    1     MO 0.0        OCC NO =    2.0000000  ORB. ENERGY =    0.000000
  0.27759097D-01  0.51738392D-01  0.87729714D-01  0.13276959D+00  0.16561960D+00
  0.14212626D+00  0.54426807D-01 -0.17695417D-04 -0.18986021D-03 -0.69986048D-03
 -0.20463510D-02 -0.24659525D-02  0.29705011D-02  0.58455606D-02 -0.14937655D-01
 -0.23004727D-02  0.33715405D-01  0.32692602D-01  0.22054236D-01  0.14222405D+01
  0.13790948D+01  0.93032923D+00 -0.38904352D+00 -0.37724135D+00 -0.25448479D+00
  0.76120821D-02  0.29014582D+00 -0.81694112D-01  0.12456429D-02  0.24154446D-01
 -0.86594192D-02  0.39904207D-04  0.20308926D-03 -0.18455927D-03 -0.10998811D-01
  0.13667785D-02  0.96320328D-02  0.50399152D-04 -0.13447400D-02 -0.13001613D+00
 -0.73782377D-03 -0.21675712D-02  0.29053949D-02 -0.11594310D-04 -0.33718413D-03
 -0.14985932D-01  0.40149132D-03 -0.53378932D-03  0.13229800D-03 -0.32561750D-05
 -0.21821505D-04  0.17590764D-02 -0.20143162D-03  0.73271317D-02  0.11272439D-04
  0.47163237D-03 -0.14224093D-01  0.40538214D-02  0.13266248D-03 -0.77573016D-02
 -0.40876387D-02 -0.18171932D-04 -0.54724611D-05  0.21517344D-03 -0.26050693D-03
  0.72641661D-05 -0.62294205D-03 -0.20913189D-03  0.91532172D-05 -0.22578273D-04
  0.99065266D-03  0.11042632D-04 -0.30396526D-01 -0.54821386D-01 -0.80834102D-01
 -0.55257566D-01 -0.61128833D-02  0.13323170D-03  0.45413312D-03 -0.17057305D-01
 -0.24483981D-01  0.24987497D-03 -0.57491728D-02 -0.10148686D-01  0.39176650D-04
  0.20042160D-03 -0.45832150D-03  0.62454980D-02 -0.39916879D-02 -0.22538101D-02
  0.23664460D-03  0.15424810D-03 -0.18854055D-01 -0.31271613D-04  0.18845018D-03
 -0.15717857D-03  0.25349257D-04  0.13747685D-04 -0.83117160D-03  0.44910918D-01
  0.80998691D-01  0.11943252D+00  0.85504206D-01  0.98403900D-02 -0.76773271D-04
  0.50091138D-03 -0.32900462D-01  0.28608645D-01  0.27432652D-03 -0.11772611D-01
  0.10424590D-01  0.41754354D-04  0.24838796D-03 -0.15967800D-03 -0.84649559D-02
  0.73844697D-02  0.10804862D-02 -0.25342823D-03  0.17553218D-03 -0.24085793D-01
  0.10477363D-03 -0.20781481D-03  0.10304119D-03 -0.27656295D-04  0.16815774D-04
 -0.12484941D-03
MO    2     MO 0.0        OCC NO =    2.0000000  ORB. ENERGY =    0.000000
 -0.72002429D-01 -0.13420069D+00 -0.22755613D+00 -0.34438200D+00 -0.42958940D+00
 -0.36865162D+00 -0.14117399D+00 -0.74117345D-03 -0.79523047D-02 -0.29313692D-01
 -0.85711517D-01 -0.10328655D+00  0.12441959D+00  0.67638601D-01 -0.61225674D-02
 -0.51428643D-02  0.22353252D+00  0.21675135D+00  0.14621918D+00 -0.31480671D+00
 -0.30525661D+00 -0.20592431D+00 -0.12724989D+01 -0.12338959D+01 -0.83237887D+00
  0.50467965D-01 -0.68144945D-01 -0.27876230D+00  0.82585894D-02 -0.73101975D-02
 -0.32714286D-01  0.26456416D-03 -0.74335262D-04 -0.69702745D-03 -0.43651777D-01
  0.14628046D-01  0.29023731D-01  0.33414545D-03 -0.89156013D-02  0.24479877D-01
 -0.67996730D-02 -0.23938115D-02  0.91934845D-02 -0.76870062D-04 -0.22355246D-02
  0.55596049D-02  0.70074260D-03 -0.12644742D-02  0.56373160D-03 -0.21588381D-04
 -0.14467618D-03  0.21624171D-03 -0.13354879D-02 -0.21608717D-02  0.96527921D-03
  0.31269140D-02  0.41838914D-02  0.16641144D-01  0.87954981D-03  0.22987236D-02
 -0.19536982D-01 -0.12047958D-03 -0.36282317D-04  0.10769775D-03 -0.55475606D-03
  0.48161288D-04  0.33658664D-03  0.82733164D-04  0.60685662D-04 -0.65967988D-03
  0.15815350D-02  0.73212449D-04  0.38370667D-01  0.69203079D-01  0.10203990D+00
  0.64842947D-01  0.80494503D-02  0.39320793D-04  0.30108943D-02  0.34574044D-01
  0.98364118D-02  0.16566665D-02  0.12609430D-01  0.20616058D-02  0.25974047D-03
  0.18371621D-04 -0.88850751D-03 -0.52062643D-02  0.80589584D-02 -0.28526941D-02
  0.15689494D-02  0.10226621D-02  0.11903462D-01 -0.13454545D-03  0.20812557D-03
 -0.73580115D-04  0.16806511D-03  0.91146900D-04 -0.28269295D-03  0.23825832D-01
  0.42970869D-01  0.63360522D-01  0.38640754D-01  0.41943597D-02  0.73830687D-04
  0.33210333D-02 -0.28841457D-01  0.99901242D-03  0.18187798D-02 -0.99443739D-02
 -0.23411972D-02  0.27683060D-03 -0.65828290D-04 -0.10637705D-02 -0.28823800D-02
  0.67698772D-02 -0.38874972D-02 -0.16802245D-02  0.11637751D-02 -0.56351355D-02
 -0.19423673D-04  0.25850696D-03 -0.23908329D-03 -0.18336073D-03  0.11148827D-03
  0.81057019D-03
MO    3     MO 0.0        OCC NO =    2.0000000  ORB. ENERGY =    0.000000
  0.36029077D+00  0.67152275D+00  0.11386612D+01  0.17232426D+01  0.21496094D+01
  0.18446846D+01  0.70641622D+00  0.12772480D-02  0.13704033D-01  0.50515645D-01
  0.14770478D+00  0.17799145D+00 -0.21440956D+00 -0.89435121D-01 -0.83947768D-01
 -0.83374550D-02 -0.11148964D+00 -0.10810745D+00 -0.72928645D-01 -0.16952066D+00
 -0.16437802D+00 -0.11088844D+00 -0.79750078D+00 -0.77330749D+00 -0.52166866D+00
 -0.25171528D-01 -0.33818506D-01 -0.17119782D+00 -0.41190747D-02 -0.28820643D-02
 -0.25059647D-01 -0.13195468D-03 -0.22665967D-04 -0.53376027D-03 -0.63877499D-02
 -0.14696403D-01  0.21084153D-01 -0.16665922D-03  0.44467676D-02  0.14239794D-01
  0.12189754D-02 -0.70645358D-02  0.58455604D-02  0.38339905D-04  0.11149959D-02
  0.13366130D-02  0.38443378D-03 -0.72934378D-03  0.34490999D-03  0.10767475D-04
  0.72159052D-04 -0.11834176D-03  0.66609130D-03 -0.83148174D-03 -0.14318461D-02
 -0.15595874D-02  0.12518763D-02  0.57535488D-02 -0.43868646D-03  0.12425689D-02
 -0.14580105D-02  0.60090695D-04  0.18096259D-04  0.38838157D-04 -0.13410751D-03
 -0.24021044D-04  0.60913082D-05 -0.13724477D-03 -0.30267733D-04 -0.12260578D-03
  0.53956730D-03 -0.36515624D-04  0.36606377D-02  0.66021109D-02  0.97348087D-02
  0.24680267D-01  0.79021121D-02  0.12331474D-03 -0.15017212D-02  0.11339546D-03
 -0.99693731D-02 -0.82628313D-03  0.62081803D-02 -0.17691148D-02 -0.12954881D-03
  0.47272354D-03 -0.52981457D-03 -0.54443146D-03  0.29178500D-02 -0.23734185D-02
 -0.78253311D-03 -0.51006549D-03 -0.14271841D-02 -0.17820584D-03  0.30149657D-03
 -0.12329073D-03 -0.83824573D-04 -0.45460656D-04 -0.92703890D-04 -0.55057222D-02
 -0.99297967D-02 -0.14641479D-01  0.84954188D-02  0.55910392D-02  0.12811641D-03
 -0.16564069D-02  0.58237159D-02 -0.17574090D-01 -0.90713915D-03 -0.38924587D-02
 -0.45942373D-02 -0.13807272D-03 -0.42842187D-03 -0.64028823D-03  0.16010017D-02
  0.14131098D-02 -0.30141115D-02  0.83803297D-03 -0.58044738D-03  0.74279825D-02
 -0.13582946D-03  0.30354511D-03 -0.16771565D-03  0.91453456D-04 -0.55606170D-04
  0.30561672D-03
MO    4     MO 0.0        OCC NO =    2.0000000  ORB. ENERGY =    0.000000
  0.31309629D+00  0.58356000D+00  0.98950799D+00  0.14975151D+01  0.18680321D+01
  0.16030494D+01  0.61388277D+00 -0.66138444D-03 -0.70962211D-02 -0.26158007D-01
 -0.76484478D-01 -0.92167515D-01  0.11102554D+00  0.10512493D+00  0.49842161D-01
  0.51429583D-02  0.94073129D+00  0.91219291D+00  0.61535995D+00 -0.43669066D-02
 -0.42344305D-02 -0.28565218D-02  0.48258123D+00  0.46794146D+00  0.31567055D+00
  0.21239323D+00 -0.19262719D-03  0.10408726D+00  0.34756077D-01  0.34895822D-03
  0.14785755D-01  0.11134120D-02  0.11617307D-04  0.30979462D-03  0.20006827D-02
  0.11089827D-01 -0.13090510D-01  0.14062432D-02 -0.37521096D-01 -0.25595407D-03
 -0.49064114D-03  0.39588180D-02 -0.34681768D-02 -0.32350583D-03 -0.94081522D-02
 -0.22365565D-03 -0.22792999D-03  0.42223080D-03 -0.19430080D-03 -0.90854186D-04
 -0.60886625D-03 -0.13794572D-03 -0.56203692D-02 -0.29998801D-04  0.14592225D-02
  0.13159543D-01 -0.25545572D-03 -0.23203761D-02  0.37015644D-02  0.34545212D-03
 -0.20572914D-02 -0.50703543D-03 -0.15269327D-03 -0.28042087D-04 -0.85022573D-04
  0.20268563D-03  0.49322317D-04 -0.17879004D-03  0.25539417D-03  0.34803944D-04
  0.43385775D-03  0.30811285D-03 -0.23972498D-03 -0.43235388D-03 -0.63750554D-03
 -0.10905865D-01 -0.41904921D-02 -0.74692052D-04  0.12671277D-01  0.44788909D-03
  0.72125297D-02  0.69720415D-02 -0.37047038D-02  0.14492828D-02  0.10931116D-02
 -0.30423649D-03  0.31031569D-03  0.86325237D-03 -0.24881562D-02  0.16249038D-02
  0.66028861D-02  0.43038490D-02 -0.20177188D-03  0.11505004D-03 -0.18519798D-03
  0.70147942D-04  0.70729800D-03  0.38358956D-03  0.82450810D-04 -0.37880188D-03
 -0.68318480D-03 -0.10073556D-02 -0.13158092D-01 -0.44550951D-02 -0.78012188D-04
  0.13976490D-01  0.69647981D-03  0.70955795D-02  0.76542914D-02  0.44427882D-02
  0.10179315D-02  0.11650350D-02  0.32776994D-03  0.30546411D-03  0.12158913D-02
 -0.29182397D-02  0.17023484D-02 -0.70711848D-02  0.48977198D-02  0.13587592D-02
  0.97086730D-04 -0.18186445D-03  0.84777721D-04 -0.77166927D-03  0.46919574D-03
 -0.79302490D-04
MO    5     MO 0.0        OCC NO =    2.0000000  ORB. ENERGY =    0.000000
 -0.15939675D+00 -0.29708933D+00 -0.50375671D+00 -0.76238221D+00 -0.95101172D+00
 -0.81610954D+00 -0.31252660D+00  0.62026924D-03  0.66550818D-02  0.24531885D-01
  0.71729792D-01  0.86437887D-01 -0.10412360D+00 -0.82747554D-01 -0.36232427D-01
 -0.30255386D-02  0.15007321D+01  0.14552053D+01  0.98167289D+00  0.50817938D-02
  0.49276306D-02  0.33241505D-02 -0.16347401D+00 -0.15851480D+00 -0.10693315D+00
  0.33882718D+00  0.12400780D-02 -0.34608533D-01  0.55445758D-01  0.11334048D-03
 -0.60628079D-02  0.17762065D-02 -0.24565831D-05 -0.12587952D-03  0.50203154D-02
 -0.10252976D-01  0.52326605D-02  0.22433550D-02 -0.59856744D-01  0.49300710D-03
  0.14274958D-02 -0.26011513D-02  0.11736556D-02 -0.51608315D-03 -0.15008660D-01
 -0.25192861D-03  0.58042377D-04 -0.11852347D-03  0.60481089D-04 -0.14493808D-03
 -0.97131361D-03  0.59510620D-05 -0.89660760D-02  0.11428229D-03 -0.11651138D-02
  0.20993187D-01 -0.50494217D-04 -0.68779878D-03  0.59050406D-02 -0.29235264D-03
  0.41831402D-02 -0.80886470D-03 -0.24358888D-03 -0.41212444D-06  0.13181628D-03
  0.32334082D-03 -0.66604323D-04  0.94253616D-04  0.40742582D-03  0.67840696D-04
 -0.48970244D-03  0.49152701D-03 -0.46101639D-02 -0.83146204D-02 -0.12259903D-01
  0.25294771D-03  0.21522264D-02  0.47131684D-04  0.20214265D-01 -0.50388942D-02
 -0.61768552D-02  0.11122375D-01  0.10344929D-02 -0.11189822D-02  0.17438217D-02
  0.21858972D-03 -0.91241932D-04  0.53582456D-04  0.66576741D-03 -0.71934987D-03
  0.10533468D-01  0.68658545D-02 -0.13289793D-02 -0.64614905D-04  0.10325546D-03
 -0.38640551D-04  0.11283401D-02  0.61193368D-03  0.22087716D-05 -0.47293707D-02
 -0.85296148D-02 -0.12576912D-01  0.12028169D-02  0.23622083D-02  0.49147374D-04
  0.22296448D-01  0.50311043D-02 -0.65449567D-02  0.12210756D-01 -0.13284379D-02
 -0.86487487D-03  0.18585598D-02 -0.23306477D-03 -0.77011899D-04 -0.23739611D-04
  0.76000804D-03 -0.73626843D-03 -0.11280537D-01  0.78132462D-02  0.10805487D-02
 -0.70410147D-04  0.10271624D-03 -0.32306098D-04 -0.12310304D-02  0.74849972D-03
 -0.45513799D-04
END DATA
 TOTAL ENERGY =    -76.464282576523 THE VIRIAL(-V/T)=   2.00561458
