 43
GAUSSIAN              5 MOL ORBITALS    126 PRIMITIVES        3 NUCLEI   B3LYP   B3LYP   B3LYP   B3LYP
  O    1    (CENTRE  1)   0.00000000  0.00000000  0.00815606  CHARGE =  8.0
  H    2    (CENTRE  2)   0.09448631 -1.34807204 -1.09730160  CHARGE =  1.0
  H    3    (CENTRE  3)   0.00000000  1.44255835 -1.09730160  CHARGE =  1.0
CENTRE ASSIGNMENTS    1  1  1  1  1  1  1  1  1  1  1  1  1  1  1  1  1  1  1  1
CENTRE ASSIGNMENTS    1  1  1  1  1  1  1  1  1  1  1  1  1  1  1  1  1  1  1  1
CENTRE ASSIGNMENTS    1  1  1  1  1  1  1  1  1  1  1  1  1  1  1  1  1  1  1  1
CENTRE ASSIGNMENTS    1  1  1  1  1  1  1  1  1  1  1  1  2  2  2  2  2  2  2  2
CENTRE ASSIGNMENTS    2  2  2  2  2  2  2  2  2  2  2  2  2  2  2  2  2  2  2  3
CENTRE ASSIGNMENTS    3  3  3  3  3  3  3  3  3  3  3  3  3  3  3  3  3  3  3  3
CENTRE ASSIGNMENTS    3  3  3  3  3  3
TYPE ASSIGNMENTS      1  1  1  1  1  1  1  1  1  1  1  1  1  1  1  1  2  2  2  3
TYPE ASSIGNMENTS      3  3  4  4  4  2  3  4  2  3  4  2  3  4  5  6  7  8  9 10
TYPE ASSIGNMENTS      5  6  7  8  9 10  5  6  7  8  9 10 11 12 13 17 14 15 18 19
TYPE ASSIGNMENTS     16 20 11 12 13 17 14 15 18 19 16 20  1  1  1  1  1  1  2  3
TYPE ASSIGNMENTS      4  2  3  4  2  3  4  5  6  7  8  9 10  5  6  7  8  9 10  1
TYPE ASSIGNMENTS      1  1  1  1  1  2  3  4  2  3  4  2  3  4  5  6  7  8  9 10
TYPE ASSIGNMENTS      5  6  7  8  9 10
EXPONENTS  0.1533000D+05 0.2299000D+04 0.5224000D+03 0.1473000D+03 0.4755000D+02
EXPONENTS  0.1676000D+02 0.6207000D+01 0.5224000D+03 0.1473000D+03 0.4755000D+02
EXPONENTS  0.1676000D+02 0.6207000D+01 0.6882000D+00 0.1752000D+01 0.2384000D+00
EXPONENTS  0.7376000D-01 0.3446000D+02 0.7749000D+01 0.2280000D+01 0.3446000D+02
EXPONENTS  0.7749000D+01 0.2280000D+01 0.3446000D+02 0.7749000D+01 0.2280000D+01
EXPONENTS  0.7156000D+00 0.7156000D+00 0.7156000D+00 0.2140000D+00 0.2140000D+00
EXPONENTS  0.2140000D+00 0.5974000D-01 0.5974000D-01 0.5974000D-01 0.2314000D+01
EXPONENTS  0.2314000D+01 0.2314000D+01 0.2314000D+01 0.2314000D+01 0.2314000D+01
EXPONENTS  0.6450000D+00 0.6450000D+00 0.6450000D+00 0.6450000D+00 0.6450000D+00
EXPONENTS  0.6450000D+00 0.2140000D+00 0.2140000D+00 0.2140000D+00 0.2140000D+00
EXPONENTS  0.2140000D+00 0.2140000D+00 0.1428000D+01 0.1428000D+01 0.1428000D+01
EXPONENTS  0.1428000D+01 0.1428000D+01 0.1428000D+01 0.1428000D+01 0.1428000D+01
EXPONENTS  0.1428000D+01 0.1428000D+01 0.5000000D+00 0.5000000D+00 0.5000000D+00
EXPONENTS  0.5000000D+00 0.5000000D+00 0.5000000D+00 0.5000000D+00 0.5000000D+00
EXPONENTS  0.5000000D+00 0.5000000D+00 0.3387000D+02 0.5095000D+01 0.1159000D+01
EXPONENTS  0.3258000D+00 0.1027000D+00 0.2526000D-01 0.1407000D+01 0.1407000D+01
EXPONENTS  0.1407000D+01 0.3880000D+00 0.3880000D+00 0.3880000D+00 0.1020000D+00
EXPONENTS  0.1020000D+00 0.1020000D+00 0.1057000D+01 0.1057000D+01 0.1057000D+01
EXPONENTS  0.1057000D+01 0.1057000D+01 0.1057000D+01 0.2470000D+00 0.2470000D+00
EXPONENTS  0.2470000D+00 0.2470000D+00 0.2470000D+00 0.2470000D+00 0.3387000D+02
EXPONENTS  0.5095000D+01 0.1159000D+01 0.3258000D+00 0.1027000D+00 0.2526000D-01
EXPONENTS  0.1407000D+01 0.1407000D+01 0.1407000D+01 0.3880000D+00 0.3880000D+00
EXPONENTS  0.3880000D+00 0.1020000D+00 0.1020000D+00 0.1020000D+00 0.1057000D+01
EXPONENTS  0.1057000D+01 0.1057000D+01 0.1057000D+01 0.1057000D+01 0.1057000D+01
EXPONENTS  0.2470000D+00 0.2470000D+00 0.2470000D+00 0.2470000D+00 0.2470000D+00
EXPONENTS  0.2470000D+00
MO    1     MO 0.0        OCC NO =    2.0000000  ORB. ENERGY =    0.000000
  0.10420675D+00  0.19422424D+00  0.32933450D+00  0.49841274D+00  0.62173061D+00
  0.53353736D+00  0.20431646D+00 -0.44723223D-03 -0.47985083D-02 -0.17688205D-01
 -0.51719275D-01 -0.62324241D-01  0.75076153D-01  0.57914881D-01 -0.34291385D-03
 -0.25237992D-02  0.24699349D+00  0.23950060D+00  0.16156569D+00  0.11350261D+01
  0.11005935D+01  0.74245390D+00 -0.71197064D+00 -0.69037203D+00 -0.46572089D+00
  0.56305176D-01  0.23362135D+00 -0.15631351D+00  0.93968173D-02  0.21918210D-01
 -0.17874260D-01  0.30276046D-03  0.21576906D-03 -0.34309741D-03 -0.26859957D-01
  0.69738272D-02  0.19886130D-01  0.20122138D-02 -0.11461491D-01 -0.10447223D+00
 -0.43606548D-02 -0.15187947D-02  0.58794494D-02  0.48838394D-03 -0.31435639D-02
 -0.13432357D-01  0.34128002D-03 -0.64829863D-03  0.30701861D-03  0.54854426D-04
 -0.18998700D-03  0.77185894D-03 -0.16400106D-02  0.54356769D-02 -0.24623869D-03
  0.22582348D-02 -0.11259896D-01  0.10644916D-01  0.26617971D-02 -0.50471350D-02
 -0.99061995D-02  0.98916599D-03 -0.23469845D-04  0.16981513D-06 -0.38190215D-03
 -0.37229222D-04 -0.63110289D-03  0.82656762D-04  0.10763876D-03  0.63059344D-03
  0.10630497D-02 -0.26078706D-03 -0.93026535D-02 -0.16777719D-01 -0.24738737D-01
 -0.23374453D-01 -0.34449073D-02  0.99061464D-04  0.45233289D-02  0.33325127D-02
 -0.17775647D-01  0.24523857D-02  0.26980178D-03 -0.86636039D-02  0.33777985D-03
  0.13942954D-03 -0.70925306D-03  0.31489440D-02  0.16315412D-02 -0.47804851D-02
  0.24626129D-02  0.25500954D-02 -0.11410944D-01  0.28181291D-04  0.18092919D-03
 -0.20911048D-03  0.21718779D-03  0.17864147D-03 -0.68589167D-03  0.47670267D-01
  0.85975291D-01  0.12677052D+00  0.83722713D-01  0.99522032D-02 -0.57116140D-04
  0.35085113D-02 -0.34386999D-01  0.26598533D-01  0.19041199D-02 -0.12164515D-01
  0.93156108D-02  0.30149964D-03  0.17153792D-03 -0.33076477D-03 -0.79340515D-02
  0.65270523D-02  0.14069992D-02 -0.17657308D-02  0.11839820D-02 -0.21764472D-01
 -0.10396481D-03 -0.15731439D-04  0.11969625D-03 -0.17745427D-03  0.97107962D-04
 -0.23503113D-03
MO    2     MO 0.0        OCC NO =    2.0000000  ORB. ENERGY =    0.000000
 -0.12555165D-02 -0.23400764D-02 -0.39679283D-02 -0.60050376D-02 -0.74908110D-02
 -0.64282303D-02 -0.24616707D-02  0.32208140D-03  0.34557220D-02  0.12738442D-01
  0.37246457D-01  0.44883792D-01 -0.54067284D-01 -0.33869807D-01  0.26799294D-01
  0.57157309D-02 -0.11043062D+00 -0.10708055D+00 -0.72235907D-01  0.89318071D+00
  0.86608484D+00  0.58425571D+00  0.11777059D+01  0.11419786D+01  0.77037199D+00
 -0.23594106D-01  0.17959147D+00  0.25259252D+00 -0.27573388D-02  0.14882177D-01
  0.27547544D-01 -0.60166448D-04  0.12421728D-03  0.52673233D-03  0.37398218D-01
 -0.34594058D-02 -0.33938812D-01  0.66852943D-02  0.10497296D-01 -0.87419428D-01
  0.48185812D-02  0.46006273D-02 -0.94192085D-02  0.36029480D-03  0.18302682D-02
 -0.79776779D-02 -0.82688524D-03  0.11826324D-02 -0.35574715D-03 -0.19710064D-03
 -0.68297181D-04  0.13175334D-02  0.10969867D-02  0.37694892D-02  0.11143013D-02
 -0.17653758D-02 -0.75505389D-02 -0.14998066D-01 -0.15255843D-02 -0.37579286D-02
  0.11655162D-01 -0.21765180D-02  0.69519958D-05  0.17918384D-03  0.64756811D-03
  0.51569069D-04 -0.23956560D-03  0.12671775D-03 -0.72425056D-04 -0.29798593D-03
 -0.20694221D-02  0.16344860D-03 -0.50389789D-01 -0.90880060D-01 -0.13400259D+00
 -0.93480562D-01 -0.10788947D-01  0.93369371D-05  0.21618267D-02 -0.41813378D-01
 -0.26546329D-01  0.63486134D-03 -0.14936253D-01 -0.81435848D-02 -0.75029790D-04
  0.18801238D-03  0.77441824D-03  0.87987343D-02 -0.82206254D-02 -0.57810892D-03
  0.20089043D-02  0.14832226D-02 -0.23923990D-01 -0.68500230D-04  0.63377189D-04
  0.51230411D-05 -0.52654856D-04 -0.38245442D-04  0.49490486D-03 -0.22752726D-02
 -0.41035478D-02 -0.60506788D-02 -0.21328092D-02 -0.47271006D-03 -0.12650551D-03
 -0.13411111D-02  0.11179461D-01  0.12957869D-01 -0.65159888D-03  0.44589797D-02
  0.65492000D-02 -0.78564594D-04  0.12580727D-03  0.94685780D-03 -0.99283798D-03
 -0.34881892D-02  0.44810272D-02  0.63840652D-03 -0.41369572D-03 -0.62340430D-02
 -0.11113905D-04 -0.13595109D-03  0.14706499D-03  0.64102014D-04  0.11543996D-05
 -0.80040307D-03
MO    3     MO 0.0        OCC NO =    2.0000000  ORB. ENERGY =    0.000000
  0.47504139D+00  0.88539905D+00  0.15013185D+01  0.22720859D+01  0.28342481D+01
  0.24322065D+01  0.93140589D+00  0.40769313D-03  0.43742798D-02  0.16124419D-01
  0.47146855D-01  0.56814252D-01 -0.68438788D-01  0.13892732D-01 -0.99129131D-02
  0.12586038D-03  0.47333501D+00  0.45897573D+00  0.30962232D+00 -0.26459695D+00
 -0.25657004D+00 -0.17308063D+00  0.20133696D+00  0.19522913D+00  0.13170042D+00
  0.10668812D+00 -0.55401084D-01  0.44908970D-01  0.17404577D-01 -0.52587488D-02
  0.44298741D-02  0.54695105D-03 -0.45210781D-04  0.93546737D-04  0.83524209D-02
 -0.24010307D-02 -0.59513901D-02 -0.10177527D-02 -0.19882369D-01  0.26276904D-01
  0.21262832D-02 -0.29536551D-03 -0.18309177D-02  0.15661824D-03 -0.47994318D-02
  0.38638216D-02 -0.70589891D-04  0.15840018D-03 -0.87810293D-04  0.29871150D-04
 -0.30578333D-03 -0.10411691D-03 -0.28510712D-02 -0.11089324D-02  0.51556452D-03
  0.60760300D-02  0.25503226D-02 -0.27490326D-02  0.24771837D-02  0.77647459D-03
  0.12023390D-02  0.15339324D-03 -0.68051168D-04 -0.19553362D-05  0.25599364D-04
  0.98912435D-04  0.16917985D-03 -0.33344504D-03  0.10524107D-03 -0.16331384D-03
  0.25664695D-03 -0.16352601D-03 -0.91528218D-03 -0.16507491D-02 -0.24340286D-02
  0.14399821D-02  0.74283230D-03 -0.22757081D-04  0.73180590D-02 -0.53062308D-02
  0.84808209D-03  0.38809335D-02 -0.14413373D-02  0.94904894D-03  0.57531506D-03
 -0.49965490D-04  0.14234181D-03  0.76891182D-03 -0.16691154D-02  0.90020357D-03
  0.37222541D-02  0.27886687D-02 -0.23280933D-02 -0.26133041D-04 -0.32833328D-04
  0.58966370D-04  0.36114666D-03  0.23753818D-03  0.15294321D-03 -0.14878473D-01
 -0.26833939D-01 -0.39566627D-01 -0.23662266D-01 -0.21521591D-02  0.31272697D-04
  0.65407013D-02  0.12436470D-01 -0.91297499D-02  0.35449394D-02  0.39218471D-02
 -0.29263601D-02  0.54359179D-03 -0.66152773D-04  0.91308376D-04  0.32625679D-02
 -0.28110637D-02 -0.45150422D-03 -0.32511965D-02  0.23900569D-02  0.91582397D-02
  0.21931192D-04  0.13498809D-04 -0.35430000D-04 -0.34082721D-03  0.20610628D-03
  0.59514607D-04
MO    4     MO 0.0        OCC NO =    2.0000000  ORB. ENERGY =    0.000000
 -0.10779627D+00 -0.20091452D+00 -0.34067880D+00 -0.51558114D+00 -0.64314683D+00
 -0.55191567D+00 -0.21135438D+00 -0.13718422D-02 -0.14718967D-01 -0.54256884D-01
 -0.15864395D+00 -0.19117367D+00  0.23028894D+00  0.12905680D+00  0.88898401D-01
  0.82908100D-02  0.88736744D+00  0.86044793D+00  0.58045309D+00 -0.18432681D+00
 -0.17873500D+00 -0.12057358D+00  0.76021146D+00  0.73714940D+00  0.49727663D+00
  0.20044737D+00 -0.36425644D-01  0.16288381D+00  0.32720356D-01 -0.28458069D-02
  0.23738371D-01  0.10419369D-02 -0.48087664D-05  0.46123067D-03  0.45364018D-02
  0.16753095D-01 -0.21289497D-01 -0.27909383D-02 -0.37509948D-01  0.18899150D-01
 -0.10204485D-02  0.63409091D-02 -0.53204606D-02 -0.25217146D-03 -0.93725503D-02
  0.15503970D-02 -0.30484633D-03  0.56259771D-03 -0.25775138D-03  0.27877082D-04
 -0.59905523D-03 -0.17590096D-03 -0.53533191D-02 -0.49969313D-03  0.26525871D-02
  0.11486074D-01  0.43445591D-03 -0.54051620D-02  0.45738838D-02  0.10646235D-02
 -0.25525993D-02  0.25990345D-03 -0.14599194D-03  0.14372045D-04  0.30014606D-04
  0.19007824D-03 -0.18291577D-05 -0.67625425D-04  0.24789758D-03 -0.41286978D-04
 -0.22418392D-04 -0.29503905D-03  0.81088345D-02  0.14624617D-01  0.21563989D-01
 -0.55776723D-02 -0.51958996D-02 -0.12970498D-03  0.12749963D-01  0.70627124D-02
  0.19918934D-01  0.73998979D-02 -0.34756013D-02  0.46484595D-02  0.11095455D-02
 -0.38850099D-03  0.55295166D-03 -0.17974403D-02 -0.17072668D-02  0.35047071D-02
  0.63765531D-02  0.45650664D-02  0.65972931D-02  0.49511694D-04 -0.18334557D-03
  0.13383387D-03  0.71553546D-03  0.46828414D-03  0.23579664D-03 -0.32782910D-02
 -0.59125328D-02 -0.87180262D-02 -0.25622600D-01 -0.78836743D-02 -0.10748736D-03
  0.12230741D-01  0.10491877D-03  0.99924771D-02  0.65926935D-02  0.63354952D-02
  0.11518550D-02  0.10183132D-02  0.46387465D-03  0.45461534D-03  0.10307594D-02
 -0.31551729D-02  0.21244135D-02 -0.60430421D-02  0.44647642D-02  0.68003610D-03
  0.14518167D-03 -0.22694260D-03  0.81760933D-04 -0.62886227D-03  0.39862409D-03
 -0.16148872D-04
MO    5     MO 0.0        OCC NO =    2.0000000  ORB. ENERGY =    0.000000
 -0.10567676D+00 -0.19696410D+00 -0.33398031D+00 -0.50544369D+00 -0.63050116D+00
 -0.54106380D+00 -0.20719869D+00  0.81965709D-03  0.87943827D-02  0.32417751D-01
  0.94787601D-01  0.11422367D+00 -0.13759451D+00 -0.97073138D-01 -0.52440047D-01
 -0.47339236D-02  0.14552137D+01  0.14110678D+01  0.95189797D+00  0.96336039D-01
  0.93413552D-01  0.63016230D-01 -0.30107485D+00 -0.29194133D+00 -0.19694190D+00
  0.32821147D+00  0.20585238D-01 -0.63304650D-01  0.53513936D-01  0.27295550D-02
 -0.91911610D-02  0.16818560D-02  0.69761985D-04 -0.13826899D-03  0.41018661D-02
 -0.11193688D-01  0.70918220D-02 -0.42996539D-03 -0.61873959D-01 -0.72187018D-02
  0.18166495D-02 -0.35320091D-02  0.17153596D-02  0.89589888D-03 -0.15288335D-01
 -0.80013985D-03  0.19756703D-03 -0.26439008D-03  0.66823050D-04  0.15621295D-03
 -0.93732931D-03 -0.67572472D-05 -0.86933235D-02  0.71810065D-03 -0.12092441D-02
  0.17402660D-01 -0.25167230D-02 -0.79149346D-03  0.86773110D-02  0.36242109D-03
  0.44192258D-02  0.19898298D-03 -0.23883221D-03  0.10701722D-04  0.79616710D-04
  0.31458669D-03  0.15395208D-04  0.62272128D-04  0.40190995D-03 -0.47500374D-04
 -0.30112226D-03 -0.43629209D-03 -0.41795952D-02 -0.75380720D-02 -0.11114883D-01
  0.53515116D-02  0.34394886D-02  0.72349389D-04  0.22401959D-01 -0.29932666D-02
 -0.87927332D-02  0.11777815D-01  0.29486245D-02 -0.10861323D-02  0.17655494D-02
  0.33271768D-03 -0.13665121D-03 -0.60045006D-03  0.17258956D-02 -0.11254455D-02
  0.10421518D-01  0.83796288D-02 -0.73339818D-03 -0.13854485D-03  0.15414525D-03
 -0.15600404D-04  0.11001748D-02  0.75177103D-03  0.45878177D-04 -0.14741434D-02
 -0.26586784D-02 -0.39202197D-02  0.92070322D-02  0.39377318D-02  0.65344952D-04
  0.20202289D-01  0.31630828D-02 -0.63993528D-02  0.10944222D-01 -0.25065209D-02
 -0.54660147D-03  0.16783159D-02 -0.21386530D-03 -0.12827548D-03 -0.32021449D-03
  0.11857402D-02 -0.86552566D-03 -0.10048972D-01  0.72916609D-02 -0.23623287D-04
 -0.69426749D-04  0.85813045D-04 -0.16386296D-04 -0.10440979D-02  0.61602410D-03
 -0.21556691D-04
END DATA
 TOTAL ENERGY =    -76.464538425815 THE VIRIAL(-V/T)=   2.00487498
