 43
GAUSSIAN              5 MOL ORBITALS    126 PRIMITIVES        3 NUCLEI   B3LYP   B3LYP   B3LYP
  O    1    (CENTRE  1)   0.00000000  0.00000000  0.00815606  CHARGE =  8.0
  H    2    (CENTRE  2)  -0.09448631 -1.34807204 -1.09730160  CHARGE =  1.0
  H    3    (CENTRE  3)   0.00000000  1.44255835 -1.09730160  CHARGE =  1.0
CENTRE ASSIGNMENTS    1  1  1  1  1  1  1  1  1  1  1  1  1  1  1  1  1  1  1  1
CENTRE ASSIGNMENTS    1  1  1  1  1  1  1  1  1  1  1  1  1  1  1  1  1  1  1  1
CENTRE ASSIGNMENTS    1  1  1  1  1  1  1  1  1  1  1  1  1  1  1  1  1  1  1  1
CENTRE ASSIGNMENTS    1  1  1  1  1  1  1  1  1  1  1  1  2  2  2  2  2  2  2  2
CENTRE ASSIGNMENTS    2  2  2  2  2  2  2  2  2  2  2  2  2  2  2  2  2  2  2  3
CENTRE ASSIGNMENTS    3  3  3  3  3  3  3  3  3  3  3  3  3  3  3  3  3  3  3  3
CENTRE ASSIGNMENTS    3  3  3  3  3  3
TYPE ASSIGNMENTS      1  1  1  1  1  1  1  1  1  1  1  1  1  1  1  1  2  2  2  3
TYPE ASSIGNMENTS      3  3  4  4  4  2  3  4  2  3  4  2  3  4  5  6  7  8  9 10
TYPE ASSIGNMENTS      5  6  7  8  9 10  5  6  7  8  9 10 11 12 13 17 14 15 18 19
TYPE ASSIGNMENTS     16 20 11 12 13 17 14 15 18 19 16 20  1  1  1  1  1  1  2  3
TYPE ASSIGNMENTS      4  2  3  4  2  3  4  5  6  7  8  9 10  5  6  7  8  9 10  1
TYPE ASSIGNMENTS      1  1  1  1  1  2  3  4  2  3  4  2  3  4  5  6  7  8  9 10
TYPE ASSIGNMENTS      5  6  7  8  9 10
EXPONENTS  0.1533000D+05 0.2299000D+04 0.5224000D+03 0.1473000D+03 0.4755000D+02
EXPONENTS  0.1676000D+02 0.6207000D+01 0.5224000D+03 0.1473000D+03 0.4755000D+02
EXPONENTS  0.1676000D+02 0.6207000D+01 0.6882000D+00 0.1752000D+01 0.2384000D+00
EXPONENTS  0.7376000D-01 0.3446000D+02 0.7749000D+01 0.2280000D+01 0.3446000D+02
EXPONENTS  0.7749000D+01 0.2280000D+01 0.3446000D+02 0.7749000D+01 0.2280000D+01
EXPONENTS  0.7156000D+00 0.7156000D+00 0.7156000D+00 0.2140000D+00 0.2140000D+00
EXPONENTS  0.2140000D+00 0.5974000D-01 0.5974000D-01 0.5974000D-01 0.2314000D+01
EXPONENTS  0.2314000D+01 0.2314000D+01 0.2314000D+01 0.2314000D+01 0.2314000D+01
EXPONENTS  0.6450000D+00 0.6450000D+00 0.6450000D+00 0.6450000D+00 0.6450000D+00
EXPONENTS  0.6450000D+00 0.2140000D+00 0.2140000D+00 0.2140000D+00 0.2140000D+00
EXPONENTS  0.2140000D+00 0.2140000D+00 0.1428000D+01 0.1428000D+01 0.1428000D+01
EXPONENTS  0.1428000D+01 0.1428000D+01 0.1428000D+01 0.1428000D+01 0.1428000D+01
EXPONENTS  0.1428000D+01 0.1428000D+01 0.5000000D+00 0.5000000D+00 0.5000000D+00
EXPONENTS  0.5000000D+00 0.5000000D+00 0.5000000D+00 0.5000000D+00 0.5000000D+00
EXPONENTS  0.5000000D+00 0.5000000D+00 0.3387000D+02 0.5095000D+01 0.1159000D+01
EXPONENTS  0.3258000D+00 0.1027000D+00 0.2526000D-01 0.1407000D+01 0.1407000D+01
EXPONENTS  0.1407000D+01 0.3880000D+00 0.3880000D+00 0.3880000D+00 0.1020000D+00
EXPONENTS  0.1020000D+00 0.1020000D+00 0.1057000D+01 0.1057000D+01 0.1057000D+01
EXPONENTS  0.1057000D+01 0.1057000D+01 0.1057000D+01 0.2470000D+00 0.2470000D+00
EXPONENTS  0.2470000D+00 0.2470000D+00 0.2470000D+00 0.2470000D+00 0.3387000D+02
EXPONENTS  0.5095000D+01 0.1159000D+01 0.3258000D+00 0.1027000D+00 0.2526000D-01
EXPONENTS  0.1407000D+01 0.1407000D+01 0.1407000D+01 0.3880000D+00 0.3880000D+00
EXPONENTS  0.3880000D+00 0.1020000D+00 0.1020000D+00 0.1020000D+00 0.1057000D+01
EXPONENTS  0.1057000D+01 0.1057000D+01 0.1057000D+01 0.1057000D+01 0.1057000D+01
EXPONENTS  0.2470000D+00 0.2470000D+00 0.2470000D+00 0.2470000D+00 0.2470000D+00
EXPONENTS  0.2470000D+00
MO    1     MO 0.0        OCC NO =    2.0000000  ORB. ENERGY =    0.000000
  0.61157523D-01  0.11398757D+00  0.19328194D+00  0.29251166D+00  0.36488524D+00
  0.31312582D+00  0.11991055D+00 -0.25954025D-03 -0.27846965D-02 -0.10264916D-01
 -0.30014012D-01 -0.36168343D-01  0.43568602D-01  0.34061942D-01 -0.38604783D-01
 -0.76200801D-02 -0.13429774D+00 -0.13022363D+00 -0.87848093D-01 -0.50431283D-01
 -0.48901380D-01 -0.32988582D-01 -0.14961823D+01 -0.14507936D+01 -0.97869677D+00
 -0.29509092D-01 -0.71235629D-02 -0.32287321D+00 -0.40414032D-02  0.87055645D-03
 -0.36744372D-01 -0.10743285D-03  0.24567908D-04 -0.70309812D-03 -0.46113936D-01
  0.35171291D-02  0.42596807D-01  0.38388223D-02  0.10996857D-01  0.85779810D-02
 -0.61487476D-02 -0.57711244D-02  0.11919872D-01 -0.57199874D-04  0.22570301D-02
 -0.14060561D-02  0.92206136D-03 -0.14295553D-02  0.50749397D-03 -0.19215178D-03
 -0.13944210D-04 -0.60729590D-03  0.12399152D-02  0.11536610D-03 -0.15425614D-02
 -0.14252977D-02 -0.40054134D-03  0.19034766D-01 -0.22944478D-02  0.54443030D-04
 -0.14407082D-01 -0.22812880D-02  0.36106724D-05 -0.14718294D-03 -0.74089161D-03
  0.82435612D-04 -0.16096757D-03 -0.35042692D-04 -0.93267630D-04  0.60251640D-03
  0.22577175D-02  0.24505648D-03  0.34209902D-01  0.61698966D-01  0.90975090D-01
  0.63935322D-01  0.78193553D-02  0.72739935D-04  0.51550416D-03  0.34631260D-01
  0.79435798D-02 -0.62431256D-04  0.13006924D-01  0.93845591D-03 -0.13093897D-03
  0.47924037D-05 -0.11247304D-02 -0.51319314D-02  0.79781659D-02 -0.28462345D-02
  0.93453461D-03  0.22882560D-03  0.11984283D-01  0.57757592D-04  0.87217406D-04
 -0.14497500D-03 -0.86099321D-04 -0.81163704D-04 -0.82499840D-03  0.29289011D-01
  0.52823938D-01  0.77888866D-01  0.53648449D-01  0.74586046D-02  0.90560270D-04
 -0.17682680D-02 -0.28446087D-01  0.26288203D-02 -0.90443879D-03 -0.11653975D-01
 -0.25809246D-03 -0.12546575D-03 -0.90314179D-04 -0.10356211D-02 -0.38844248D-02
  0.71118773D-02 -0.32274525D-02  0.87449822D-03 -0.52618814D-03 -0.74211860D-02
 -0.76430875D-04  0.14226937D-03 -0.65838495D-04  0.85465167D-04 -0.99029979D-05
  0.51870141D-03
MO    2     MO 0.0        OCC NO =    2.0000000  ORB. ENERGY =    0.000000
  0.53304322D-01  0.99350492D-01  0.16846272D+00  0.25495041D+00  0.31803055D+00
  0.27291752D+00  0.10451291D+00 -0.12427062D-02 -0.13333422D-01 -0.49149505D-01
 -0.14371027D+00 -0.17317786D+00  0.20861109D+00  0.13420476D+00  0.76940511D-01
  0.65888733D-02 -0.57707611D+00 -0.55956971D+00 -0.37748242D+00  0.78520394D+00
  0.76138369D+00  0.51362494D+00  0.48325078D+00  0.46859070D+00  0.31610852D+00
 -0.13110275D+00  0.16130074D+00  0.10125360D+00 -0.21840289D-01  0.14865173D-01
  0.15044412D-01 -0.70796862D-03  0.15069448D-03  0.28720117D-03 -0.30380251D-02
  0.16696547D-01 -0.13658522D-01 -0.10979603D-02  0.23353233D-01 -0.72402939D-01
 -0.21768074D-02  0.53065664D-02 -0.31297590D-02 -0.10655670D-03  0.62383519D-02
 -0.89984121D-02 -0.26758070D-03  0.37495196D-03 -0.10737126D-03  0.21234731D-04
  0.44907170D-03  0.71331006D-03  0.34687384D-02  0.38674328D-02  0.22636932D-02
 -0.70026843D-02 -0.81814587D-02 -0.14617002D-02 -0.34035310D-02 -0.34208396D-02
 -0.53293793D-02 -0.18610546D-03  0.86388946D-04  0.57951478D-04 -0.48276017D-04
 -0.87319631D-04 -0.44745225D-03 -0.45119101D-05 -0.17184721D-03  0.27359782D-03
  0.14933996D-03  0.27649731D-03 -0.13479600D-01 -0.24311013D-01 -0.35846575D-01
 -0.45070050D-01 -0.92544653D-02 -0.40366548D-04 -0.97626338D-02 -0.45710374D-02
 -0.29687621D-02 -0.55357387D-02 -0.70100541D-02 -0.41270020D-02 -0.76364595D-03
 -0.19090012D-03  0.19606681D-03  0.33030508D-02 -0.28901708D-02 -0.41288007D-03
 -0.53898856D-02 -0.42362168D-02 -0.92198111D-02  0.52102472D-04 -0.25574014D-04
 -0.26528457D-04 -0.49573232D-03 -0.34150637D-03 -0.11724080D-03  0.25588603D-01
  0.46150100D-01  0.68048295D-01  0.29884374D-01 -0.28992605D-03 -0.15336243D-03
 -0.80487586D-02 -0.17563689D-01  0.27322391D-01 -0.43599400D-02 -0.11230602D-02
  0.82366990D-02 -0.68561138D-03  0.49546350D-03  0.40462150D-03 -0.41290420D-02
  0.42434706D-03  0.37046950D-02  0.39953736D-02 -0.29114791D-02 -0.13922278D-01
  0.47205407D-04 -0.21935535D-03  0.17214994D-03  0.41298461D-03 -0.26967998D-03
 -0.37033360D-03
MO    3     MO 0.0        OCC NO =    2.0000000  ORB. ENERGY =    0.000000
  0.20562861D+00  0.38325793D+00  0.64986767D+00  0.98350562D+00  0.12268457D+01
  0.10528162D+01  0.40317266D+00  0.10873574D-02  0.11666631D-01  0.43005400D-01
  0.12574527D+00  0.15152916D+00 -0.18253293D+00 -0.88607300D-01 -0.58252993D-01
 -0.48565671D-02 -0.15546324D-01 -0.15074704D-01 -0.10169307D-01  0.10845158D+01
  0.10516155D+01  0.70941362D+00 -0.29444797D+00 -0.28551549D+00 -0.19260706D+00
 -0.42365524D-02  0.22020808D+00 -0.64144799D-01 -0.13055135D-02  0.19549913D-01
 -0.11819532D-01 -0.49181622D-04  0.18007219D-03 -0.21934341D-03  0.46360850D-02
 -0.11969757D-01  0.73336716D-02 -0.56211638D-02 -0.15725937D-02 -0.10264194D+00
  0.17189803D-02 -0.34652205D-02  0.17462402D-02 -0.84909978D-03  0.46814527D-04
 -0.10928991D-01 -0.22399239D-05 -0.13816529D-03  0.14040521D-03  0.36638061D-04
  0.76239446D-04  0.11108706D-02 -0.61110606D-04  0.48164145D-02 -0.14193790D-02
  0.82393591D-03 -0.96880004D-02  0.66052367D-03 -0.64060409D-03 -0.47612432D-02
  0.35976132D-02  0.61892229D-03 -0.32782222D-05  0.79978572D-04  0.12633365D-03
  0.61090643D-05 -0.39120468D-03  0.81261156D-04  0.37256024D-05  0.15126897D-03
 -0.46026212D-03  0.24087368D-04 -0.35375949D-01 -0.63801981D-01 -0.94075984D-01
 -0.51824287D-01 -0.26733628D-02  0.14853666D-03 -0.30407846D-02 -0.24901905D-01
 -0.36266424D-01 -0.97146959D-03 -0.44993190D-02 -0.11271304D-01 -0.46586458D-04
  0.47659628D-03 -0.33085678D-03  0.69895467D-02 -0.20318039D-02 -0.49577428D-02
 -0.18820078D-02 -0.20384646D-02 -0.22185403D-01 -0.91638330D-04  0.26833592D-03
 -0.17669759D-03 -0.15298195D-04 -0.35314033D-04 -0.20763444D-03  0.21248033D-01
  0.38321702D-01  0.56505328D-01  0.54165798D-01  0.10223746D-01  0.86314109D-06
 -0.39629889D-03 -0.83715487D-02  0.97593062D-02 -0.27345956D-03 -0.76719263D-02
  0.63466284D-02 -0.52548737D-04 -0.21040593D-03 -0.41696257D-05 -0.44568527D-02
  0.32257049D-02  0.12311477D-02  0.24608571D-03 -0.11097694D-03 -0.12319173D-01
 -0.16090297D-03  0.92332092D-04  0.68570883D-04  0.23702633D-04 -0.13062693D-04
 -0.48725344D-03
MO    4     MO 0.0        OCC NO =    2.0000000  ORB. ENERGY =    0.000000
  0.32563496D+00  0.60693003D+00  0.10291352D+01  0.15574866D+01  0.19428418D+01
  0.16672473D+01  0.63846714D+00  0.42463331D-03  0.45560368D-02  0.16794409D-01
  0.49105868D-01  0.59174959D-01 -0.71282509D-01 -0.52492156D-02 -0.15850059D-01
 -0.60304390D-03 -0.11244108D+01 -0.10903002D+01 -0.73551009D+00 -0.60410433D+00
 -0.58577799D+00 -0.39516237D+00  0.13670237D+00  0.13255531D+00  0.89421030D-01
 -0.25325653D+00 -0.12379798D+00  0.31963055D-01 -0.41073619D-01 -0.10892635D-01
  0.35480338D-02 -0.12874321D-02 -0.76258457D-04  0.91790981D-04  0.82478722D-02
 -0.38075132D-02 -0.44403589D-02  0.31746903D-02  0.48398116D-01  0.59209795D-01
  0.23200835D-02 -0.88332395D-03 -0.14367596D-02 -0.27557776D-03  0.11686742D-01
  0.73257496D-02  0.35945840D-04  0.61345016D-04 -0.97290856D-04 -0.11654878D-03
  0.69987039D-03 -0.50977688D-03  0.67934538D-02 -0.24901204D-02  0.35302821D-03
 -0.14192025D-01  0.48082572D-02 -0.31524707D-02 -0.61883366D-02  0.26621040D-02
  0.20933860D-02 -0.45627624D-03  0.17764505D-03 -0.26402987D-04  0.18067075D-04
 -0.24391419D-03  0.31531809D-03 -0.31429559D-03 -0.28902098D-03 -0.23610913D-03
  0.26009437D-03  0.34855499D-03  0.99300181D-02  0.17909197D-01  0.26407100D-01
  0.23280946D-01  0.35156767D-02 -0.38097735D-04 -0.16330710D-01  0.24506559D-02
  0.94235884D-02 -0.88287820D-02  0.18091198D-02  0.44383804D-02 -0.13538932D-02
 -0.51201289D-04  0.17953499D-03 -0.21000704D-02  0.37994215D-04  0.20620762D-02
 -0.77126947D-02 -0.58266844D-02  0.54753807D-02 -0.59904426D-04 -0.50967618D-04
  0.11087204D-03 -0.85052250D-03 -0.56366265D-03  0.24132475D-03 -0.22819386D-01
 -0.41155702D-01 -0.60684059D-01 -0.37663524D-01 -0.37304613D-02  0.64275841D-04
 -0.15516600D-01  0.16602069D-01 -0.15771940D-01 -0.83866702D-02  0.52206849D-02
 -0.54562432D-02 -0.12819319D-02 -0.10275328D-03  0.15628934D-04  0.45933818D-02
 -0.32278220D-02 -0.13655598D-02  0.76990735D-02 -0.56391444D-02  0.13304751D-01
  0.42890701D-04  0.26731662D-04 -0.69622363D-04  0.80350304D-03 -0.47847290D-03
  0.22667750D-03
MO    5     MO 0.0        OCC NO =    2.0000000  ORB. ENERGY =    0.000000
  0.32312491D+00  0.60225171D+00  0.10212024D+01  0.15454813D+01  0.19278660D+01
  0.16543959D+01  0.63354573D+00 -0.22229765D-03 -0.23851079D-02 -0.87919568D-02
 -0.25707166D-01 -0.30978385D-01  0.37316747D-01  0.61018161D-01  0.20363271D-01
  0.21848957D-02  0.12596510D+01  0.12214377D+01  0.82397466D+00 -0.19778657D+00
 -0.19178644D+00 -0.12937800D+00  0.15974188D+00  0.15489589D+00  0.10449185D+00
  0.28424583D+00 -0.42019975D-01  0.34010736D-01  0.46380036D-01 -0.47445551D-02
  0.41466497D-02  0.14615232D-02 -0.85827381D-04  0.48961451D-04 -0.14162622D-02
  0.48388488D-02 -0.34225865D-02 -0.36602890D-03 -0.53489210D-01  0.17304069D-01
 -0.46192808D-03  0.14101162D-02 -0.94818812D-03  0.66898881D-03 -0.13313563D-01
  0.24467832D-02 -0.11859385D-03  0.15280421D-03 -0.34210363D-04  0.12502154D-03
 -0.82111239D-03 -0.44295482D-04 -0.75185927D-02 -0.11755129D-02  0.65079146D-03
  0.15058395D-01  0.35706148D-02  0.90684668D-03  0.74973830D-02 -0.44076083D-04
 -0.28592211D-02  0.12724318D-03 -0.21104501D-03 -0.17801727D-04 -0.74506244D-04
  0.27380975D-03  0.77162390D-04 -0.18945368D-03  0.35932529D-03 -0.23757209D-04
  0.41297242D-03 -0.37455399D-03  0.27658883D-02  0.49883934D-02  0.73553832D-02
 -0.95527264D-04 -0.11634911D-02 -0.45176516D-04  0.19276517D-01 -0.36427977D-03
  0.44164491D-02  0.10267173D-01 -0.20441019D-02  0.64047201D-03  0.15373584D-02
 -0.22953968D-03  0.47897882D-04  0.10026000D-02 -0.16691740D-02  0.66657403D-03
  0.89594624D-02  0.71717596D-02 -0.11176994D-02  0.98887584D-04 -0.11110199D-03
  0.12214407D-04  0.96226784D-03  0.65732244D-03 -0.27517822D-04 -0.52052325D-02
 -0.93878512D-02 -0.13842381D-01 -0.13839247D-01 -0.27209354D-02 -0.14630404D-04
  0.17486602D-01  0.29586045D-02 -0.14560669D-02  0.94666966D-02  0.25435284D-02
 -0.13790027D-02  0.14540829D-02  0.45577949D-04  0.30342617D-04  0.16259816D-02
 -0.15653030D-02 -0.60678560D-04 -0.86909028D-02  0.63104609D-02  0.43828795D-02
  0.38878799D-04 -0.13493719D-04 -0.25385080D-04 -0.90184866D-03  0.53699687D-03
  0.71801452D-04
END DATA
 TOTAL ENERGY =    -76.464538425815 THE VIRIAL(-V/T)=   2.00487498
