 43
GAUSSIAN              5 MOL ORBITALS    126 PRIMITIVES        3 NUCLEI   B3LYP   B3LYP   B3LYP
  O    1    (CENTRE  1)   0.00000000  0.00000000  0.00815606  CHARGE =  8.0
  H    2    (CENTRE  2)  -0.09448631 -1.53704465 -1.09730160  CHARGE =  1.0
  H    3    (CENTRE  3)   0.00000000  1.44255835 -1.09730160  CHARGE =  1.0
CENTRE ASSIGNMENTS    1  1  1  1  1  1  1  1  1  1  1  1  1  1  1  1  1  1  1  1
CENTRE ASSIGNMENTS    1  1  1  1  1  1  1  1  1  1  1  1  1  1  1  1  1  1  1  1
CENTRE ASSIGNMENTS    1  1  1  1  1  1  1  1  1  1  1  1  1  1  1  1  1  1  1  1
CENTRE ASSIGNMENTS    1  1  1  1  1  1  1  1  1  1  1  1  2  2  2  2  2  2  2  2
CENTRE ASSIGNMENTS    2  2  2  2  2  2  2  2  2  2  2  2  2  2  2  2  2  2  2  3
CENTRE ASSIGNMENTS    3  3  3  3  3  3  3  3  3  3  3  3  3  3  3  3  3  3  3  3
CENTRE ASSIGNMENTS    3  3  3  3  3  3
TYPE ASSIGNMENTS      1  1  1  1  1  1  1  1  1  1  1  1  1  1  1  1  2  2  2  3
TYPE ASSIGNMENTS      3  3  4  4  4  2  3  4  2  3  4  2  3  4  5  6  7  8  9 10
TYPE ASSIGNMENTS      5  6  7  8  9 10  5  6  7  8  9 10 11 12 13 17 14 15 18 19
TYPE ASSIGNMENTS     16 20 11 12 13 17 14 15 18 19 16 20  1  1  1  1  1  1  2  3
TYPE ASSIGNMENTS      4  2  3  4  2  3  4  5  6  7  8  9 10  5  6  7  8  9 10  1
TYPE ASSIGNMENTS      1  1  1  1  1  2  3  4  2  3  4  2  3  4  5  6  7  8  9 10
TYPE ASSIGNMENTS      5  6  7  8  9 10
EXPONENTS  0.1533000D+05 0.2299000D+04 0.5224000D+03 0.1473000D+03 0.4755000D+02
EXPONENTS  0.1676000D+02 0.6207000D+01 0.5224000D+03 0.1473000D+03 0.4755000D+02
EXPONENTS  0.1676000D+02 0.6207000D+01 0.6882000D+00 0.1752000D+01 0.2384000D+00
EXPONENTS  0.7376000D-01 0.3446000D+02 0.7749000D+01 0.2280000D+01 0.3446000D+02
EXPONENTS  0.7749000D+01 0.2280000D+01 0.3446000D+02 0.7749000D+01 0.2280000D+01
EXPONENTS  0.7156000D+00 0.7156000D+00 0.7156000D+00 0.2140000D+00 0.2140000D+00
EXPONENTS  0.2140000D+00 0.5974000D-01 0.5974000D-01 0.5974000D-01 0.2314000D+01
EXPONENTS  0.2314000D+01 0.2314000D+01 0.2314000D+01 0.2314000D+01 0.2314000D+01
EXPONENTS  0.6450000D+00 0.6450000D+00 0.6450000D+00 0.6450000D+00 0.6450000D+00
EXPONENTS  0.6450000D+00 0.2140000D+00 0.2140000D+00 0.2140000D+00 0.2140000D+00
EXPONENTS  0.2140000D+00 0.2140000D+00 0.1428000D+01 0.1428000D+01 0.1428000D+01
EXPONENTS  0.1428000D+01 0.1428000D+01 0.1428000D+01 0.1428000D+01 0.1428000D+01
EXPONENTS  0.1428000D+01 0.1428000D+01 0.5000000D+00 0.5000000D+00 0.5000000D+00
EXPONENTS  0.5000000D+00 0.5000000D+00 0.5000000D+00 0.5000000D+00 0.5000000D+00
EXPONENTS  0.5000000D+00 0.5000000D+00 0.3387000D+02 0.5095000D+01 0.1159000D+01
EXPONENTS  0.3258000D+00 0.1027000D+00 0.2526000D-01 0.1407000D+01 0.1407000D+01
EXPONENTS  0.1407000D+01 0.3880000D+00 0.3880000D+00 0.3880000D+00 0.1020000D+00
EXPONENTS  0.1020000D+00 0.1020000D+00 0.1057000D+01 0.1057000D+01 0.1057000D+01
EXPONENTS  0.1057000D+01 0.1057000D+01 0.1057000D+01 0.2470000D+00 0.2470000D+00
EXPONENTS  0.2470000D+00 0.2470000D+00 0.2470000D+00 0.2470000D+00 0.3387000D+02
EXPONENTS  0.5095000D+01 0.1159000D+01 0.3258000D+00 0.1027000D+00 0.2526000D-01
EXPONENTS  0.1407000D+01 0.1407000D+01 0.1407000D+01 0.3880000D+00 0.3880000D+00
EXPONENTS  0.3880000D+00 0.1020000D+00 0.1020000D+00 0.1020000D+00 0.1057000D+01
EXPONENTS  0.1057000D+01 0.1057000D+01 0.1057000D+01 0.1057000D+01 0.1057000D+01
EXPONENTS  0.2470000D+00 0.2470000D+00 0.2470000D+00 0.2470000D+00 0.2470000D+00
EXPONENTS  0.2470000D+00
MO    1     MO 0.0        OCC NO =    2.0000000  ORB. ENERGY =    0.000000
  0.50481179D+00  0.94088617D+00  0.15954047D+01  0.24144754D+01  0.30118677D+01
  0.25846306D+01  0.98977621D+00  0.43099084D-03  0.46242489D-02  0.17045852D-01
  0.49841071D-01  0.60060914D-01 -0.72349736D-01  0.15380948D-01 -0.23558129D-01
 -0.20667741D-02  0.34907589D-01  0.33848619D-01  0.22834079D-01  0.16187101D+00
  0.15696043D+00  0.10588458D+00 -0.16224527D+00 -0.15732333D+00 -0.10612939D+00
  0.80005999D-02  0.34959365D-01 -0.32647685D-01  0.12828390D-02  0.36767329D-02
 -0.48341068D-02  0.41706092D-04  0.44322355D-04 -0.10111679D-03 -0.16812551D-02
 -0.24413817D-02  0.41226368D-02 -0.65744082D-03 -0.14637427D-02 -0.15823393D-01
  0.10491549D-02 -0.22234822D-02  0.11743273D-02 -0.33400465D-03 -0.46236542D-03
 -0.28162663D-02  0.14752536D-03 -0.20990927D-03  0.62383909D-04 -0.25450590D-04
 -0.33770891D-04  0.13671570D-04 -0.22918536D-03  0.78611529D-03 -0.25268439D-03
  0.65857912D-03 -0.22933992D-02  0.14554829D-02  0.28976943D-04 -0.64946608D-04
 -0.69742968D-03  0.31332110D-04 -0.27143663D-04  0.29542836D-04 -0.16613657D-03
  0.61428357D-04 -0.14060202D-03 -0.31260728D-03  0.20002633D-04  0.51973513D-04
  0.81101697D-03  0.99062629D-04 -0.54922980D-02 -0.99055857D-02 -0.14605780D-01
 -0.46148662D-02  0.74741760D-03  0.55464562D-04  0.94611801D-04 -0.38947602D-02
 -0.58735441D-02  0.18612967D-03  0.11794568D-03 -0.17113332D-02  0.40507864D-04
  0.16086396D-03 -0.11674159D-03  0.13477054D-02 -0.56819605D-03 -0.77950939D-03
 -0.59685359D-04 -0.14442432D-03 -0.42868641D-02 -0.25078707D-04  0.77226305D-04
 -0.52147598D-04  0.26170371D-04  0.80490457D-05 -0.10929017D-03  0.27075354D-02
  0.48831516D-02  0.72002042D-02  0.95741936D-02  0.22068610D-02  0.12244893D-04
  0.47322673D-03  0.19824342D-03 -0.98450899D-03  0.24892194D-03 -0.10780128D-02
  0.14016931D-03  0.37433980D-04 -0.12226801D-04 -0.12364193D-03  0.37325591D-03
 -0.16656321D-03 -0.20669270D-03 -0.23104311D-03  0.18484886D-03  0.13671821D-02
 -0.20552715D-04  0.14605381D-04  0.59473347D-05 -0.23877601D-04  0.19556698D-04
  0.10058039D-04
MO    2     MO 0.0        OCC NO =    2.0000000  ORB. ENERGY =    0.000000
 -0.59905194D-01 -0.11165343D+00 -0.18932408D+00 -0.28652187D+00 -0.35741344D+00
 -0.30671391D+00 -0.11745513D+00 -0.31618558D-03 -0.33924637D-02 -0.12505260D-01
 -0.36564647D-01 -0.44062178D-01  0.53077562D-01  0.25450737D-01 -0.22933597D-01
 -0.58360409D-02  0.10455139D+00  0.10137968D+00  0.68390135D-01  0.93214074D+00
  0.90386296D+00  0.60974061D+00 -0.11316844D+01 -0.10973532D+01 -0.74026796D+00
  0.23465341D-01  0.19297869D+00 -0.24588106D+00  0.39309583D-02  0.17918720D-01
 -0.28972285D-01  0.13018959D-03  0.18154664D-03 -0.58212200D-03 -0.34609349D-01
  0.58147231D-02  0.28794626D-01 -0.98067757D-03 -0.23982050D-02 -0.89455656D-01
 -0.50281165D-02 -0.36929957D-02  0.87211122D-02 -0.41690655D-03 -0.50012363D-03
 -0.11371631D-01  0.59316527D-03 -0.10439150D-02  0.45074971D-03 -0.81289992D-04
 -0.76582100D-04  0.81459610D-03 -0.45460861D-03  0.41475177D-02 -0.37296943D-03
  0.20392398D-02 -0.96930777D-02  0.13860056D-01 -0.67541397D-03 -0.27494754D-02
 -0.12741148D-01 -0.11751511D-02 -0.40078883D-04  0.18567737D-03 -0.52280444D-03
  0.16094019D-03 -0.53539968D-03  0.21879558D-03 -0.40703539D-04 -0.21632423D-04
  0.13496177D-02  0.15278219D-03 -0.64202358D-03 -0.11579160D-02 -0.17073464D-02
 -0.12200541D-02  0.12037236D-02  0.16446206D-03  0.12658728D-02  0.83477565D-02
 -0.13014477D-01  0.73816472D-03  0.46536295D-02 -0.61544338D-02  0.11336874D-03
  0.39060222D-03 -0.80711533D-03  0.12048603D-02  0.28253903D-02 -0.40302506D-02
  0.65628599D-03 -0.60796156D-04 -0.59546229D-02 -0.10767227D-03  0.32870082D-03
 -0.22102855D-03  0.82127589D-04  0.16255425D-04 -0.63847901D-03  0.48649483D-01
  0.87741347D-01  0.12937456D+00  0.89188978D-01  0.11436224D-01 -0.12451825D-04
  0.14178492D-02 -0.37372044D-01  0.21940837D-01  0.77432561D-03 -0.14669056D-01
  0.75795430D-02  0.11824185D-03  0.69799033D-04 -0.65934809D-03 -0.79826607D-02
  0.81337748D-02 -0.15111406D-03 -0.71682784D-03  0.59664023D-03 -0.21577144D-01
 -0.10192070D-03  0.94663573D-04  0.72571286D-05 -0.76525315D-04  0.65554970D-04
 -0.12829199D-04
MO    3     MO 0.0        OCC NO =    2.0000000  ORB. ENERGY =    0.000000
 -0.21961614D-01 -0.40932837D-01 -0.69407378D-01 -0.10504069D+00 -0.13102998D+00
 -0.11244321D+00 -0.43059777D-01  0.58109818D-03  0.62348021D-02  0.22982655D-01
  0.67199934D-01  0.80979188D-01 -0.97548014D-01 -0.61581535D-01 -0.99469642D-02
  0.19634131D-02 -0.72116012D+00 -0.69928273D+00 -0.47173200D+00  0.10093367D+01
  0.97871704D+00  0.66023673D+00  0.67899678D+00  0.65839847D+00  0.44415172D+00
 -0.16343095D+00  0.21395972D+00  0.15170820D+00 -0.27776146D-01  0.22255034D-01
  0.18673054D-01 -0.92820830D-03  0.25749196D-03  0.39070297D-03  0.25973734D-01
 -0.89992927D-02 -0.16974441D-01 -0.69236497D-02  0.24456048D-01 -0.89246738D-01
  0.52380639D-02  0.13113784D-03 -0.53692017D-02 -0.73247951D-03  0.68484592D-02
 -0.14735664D-01 -0.12561361D-03  0.45938686D-03 -0.33377325D-03  0.11276332D-03
  0.56725479D-03  0.10747737D-03  0.37865574D-02  0.53416051D-02 -0.37263593D-03
 -0.81861878D-02 -0.12543571D-01 -0.10845111D-01 -0.31734846D-02 -0.34812440D-02
  0.11963019D-01  0.25763961D-02  0.16090039D-03  0.33244322D-04  0.27656533D-03
 -0.29911731D-03 -0.87749353D-03 -0.40377913D-03 -0.18358385D-03  0.77776056D-03
 -0.42591685D-03 -0.10800682D-03 -0.42828678D-01 -0.77243284D-01 -0.11389518D+00
 -0.71932056D-01 -0.89190219D-02  0.61452272D-04 -0.11626724D-01 -0.28926106D-01
 -0.20177420D-01 -0.60380612D-02 -0.10204215D-01 -0.71097413D-02 -0.84275812D-03
  0.16452617D-03  0.32441910D-03  0.58531460D-02 -0.54828329D-02 -0.37031308D-03
 -0.65445811D-02 -0.46520162D-02 -0.16585724D-01  0.16260139D-03 -0.71952750D-04
 -0.90648636D-04 -0.55288641D-03 -0.33076411D-03 -0.47678848D-03  0.63709821D-02
  0.11490329D-01  0.16942483D-01  0.17237758D-01  0.24271981D-02 -0.10401829D-03
 -0.10174873D-01  0.52721244D-02  0.12774214D-01 -0.56072390D-02  0.14899807D-02
  0.68302727D-02 -0.88479683D-03  0.29267534D-03  0.61304817D-03 -0.22485010D-02
 -0.15521148D-02  0.38006158D-02  0.51472255D-02 -0.38034646D-02 -0.77945059D-02
  0.24080745D-04 -0.29748475D-03  0.27340400D-03  0.52409908D-03 -0.36238043D-03
 -0.57052892D-03
MO    4     MO 0.0        OCC NO =    2.0000000  ORB. ENERGY =    0.000000
 -0.16213180D-01 -0.30218702D-01 -0.51240056D-01 -0.77546376D-01 -0.96732992D-01
 -0.83011299D-01 -0.31788917D-01 -0.17622362D-04 -0.18907638D-03 -0.69697113D-03
 -0.20379027D-02 -0.24557718D-02  0.29582374D-02  0.46873243D-03  0.17864142D-01
  0.33821545D-02  0.16113369D+01  0.15624548D+01  0.10540228D+01  0.40648416D+00
  0.39415290D+00  0.26589322D+00  0.49834010D+00  0.48322227D+00  0.32597889D+00
  0.36366180D+00  0.85506892D-01  0.10893419D+00  0.59894635D-01  0.81659616D-02
  0.13389860D-01  0.19350197D-02  0.47409716D-04  0.23726760D-03  0.12514648D-01
 -0.10832919D-02 -0.11431356D-01 -0.46128022D-03 -0.65545921D-01 -0.38835925D-01
  0.15759291D-02  0.19925621D-02 -0.35684912D-02 -0.64453949D-03 -0.17179609D-01
 -0.62374557D-02 -0.24846717D-03  0.44966571D-03 -0.20119854D-03 -0.97525719D-04
 -0.11677240D-02  0.47255841D-04 -0.96783790D-02  0.17113550D-02 -0.11643726D-04
  0.20760530D-01 -0.32546029D-02 -0.49508633D-02  0.82746068D-02 -0.18794622D-02
  0.49857945D-02  0.18604801D-04 -0.42692121D-03 -0.27465526D-04  0.16582728D-03
  0.68465591D-03 -0.27230835D-03 -0.66586372D-04  0.59610774D-03  0.35470493D-03
 -0.43089546D-03  0.52286416D-03 -0.21487068D-01 -0.38752812D-01 -0.57140998D-01
 -0.40468706D-01 -0.63472778D-02 -0.98264703D-05  0.19143913D-01 -0.15121078D-01
 -0.77032219D-02  0.10583269D-01 -0.71046813D-02 -0.33503642D-02  0.17442492D-02
 -0.13319972D-03  0.21409036D-03  0.37725535D-02 -0.39530655D-02  0.18051206D-03
  0.95277759D-02  0.67143485D-02 -0.85715345D-02  0.20284289D-03 -0.16365357D-03
 -0.39189319D-04  0.10115951D-02  0.56587218D-03 -0.27989132D-03  0.12889903D-02
  0.23247471D-02  0.34278382D-02  0.29142366D-03 -0.10568832D-02 -0.84315984D-04
  0.22355750D-01  0.28741653D-02  0.75086386D-02  0.12187940D-01  0.22963646D-02
  0.29976937D-02  0.18776538D-02  0.19381867D-03  0.35281286D-03 -0.71839079D-03
 -0.13760633D-02  0.20944541D-02 -0.11127149D-01  0.83286104D-02 -0.30860281D-02
  0.44677111D-04 -0.17305029D-03  0.12837318D-03 -0.11727180D-02  0.73498745D-03
 -0.27639971D-03
MO    5     MO 0.0        OCC NO =    2.0000000  ORB. ENERGY =    0.000000
  0.83279172D-02  0.15521868D-01  0.26319509D-01  0.39831778D-01  0.49687004D-01
  0.42638841D-01  0.16328411D-01 -0.15574478D-02 -0.16710393D-01 -0.61597656D-01
 -0.18010793D+00 -0.21703882D+00  0.26144625D+00  0.16208563D+00  0.99708458D-01
  0.93072217D-02 -0.28544358D+00 -0.27678425D+00 -0.18671702D+00  0.22879489D+00
  0.22185408D+00  0.14966145D+00  0.75607714D+00  0.73314050D+00  0.49457225D+00
 -0.64996375D-01  0.48007186D-01  0.16123891D+00 -0.10973907D-01  0.50460751D-02
  0.24110615D-01 -0.37283406D-03  0.67740119D-04  0.48396458D-03  0.82752112D-03
  0.18770996D-01 -0.19598517D-01 -0.15367888D-03  0.10432951D-01 -0.21147783D-01
 -0.23637554D-02  0.76743777D-02 -0.53106224D-02  0.60430855D-03  0.30659223D-02
 -0.28257101D-02 -0.33513582D-03  0.63803063D-03 -0.30289481D-03  0.91314814D-04
  0.24371768D-03  0.13586364D-05  0.16804648D-02  0.10979786D-02  0.27040293D-02
 -0.40439401D-02 -0.27953741D-02 -0.37013973D-02 -0.99745425D-03 -0.49856181D-03
 -0.44106905D-02  0.29885564D-03  0.82678048D-04 -0.40324045D-05  0.68463692D-04
 -0.14515580D-03 -0.74268706D-04 -0.64615991D-05 -0.10287835D-03  0.86365920D-04
 -0.19892948D-03 -0.10019839D-03 -0.22254308D-02 -0.40136560D-02 -0.59181335D-02
 -0.24574138D-01 -0.88738759D-02 -0.12804519D-03 -0.35604954D-02  0.27915410D-02
  0.10774466D-01 -0.23910851D-02 -0.60441725D-02  0.11713722D-02 -0.35794050D-03
 -0.53888503D-03  0.39585087D-03  0.92104626D-03 -0.29698714D-02  0.20488252D-02
 -0.23911394D-02 -0.14135856D-02 -0.33868429D-03  0.19230866D-03 -0.28539367D-03
  0.93085014D-04 -0.24848527D-03 -0.13294536D-03 -0.78372964D-04  0.95121573D-02
  0.17155567D-01  0.25295874D-01 -0.55514958D-02 -0.64434382D-02 -0.16314031D-03
 -0.39617468D-02 -0.83675899D-02  0.19612132D-01 -0.21545167D-02  0.43401338D-02
  0.41071177D-02 -0.34230963D-03  0.62964447D-03  0.45949112D-03 -0.98403189D-03
 -0.21014725D-02  0.30855044D-02  0.19551803D-02 -0.15172063D-02 -0.54082250D-02
  0.15578088D-03 -0.31585230D-03  0.16007142D-03  0.20050576D-03 -0.15495449D-03
 -0.12481167D-03
END DATA
 TOTAL ENERGY =    -76.464583881771 THE VIRIAL(-V/T)=   2.00693803
