 44
GAUSSIAN              5 MOL ORBITALS    126 PRIMITIVES        3 NUCLEI   B3LYP   B3LYP   B3LYP
  O    1    (CENTRE  1)   0.00000000  0.00000000  0.00815606  CHARGE =  8.0
  H    2    (CENTRE  2)   0.00000000 -1.34807204 -1.09730160  CHARGE =  1.0
  H    3    (CENTRE  3)   0.00000000  1.44255835 -1.09730160  CHARGE =  1.0
CENTRE ASSIGNMENTS    1  1  1  1  1  1  1  1  1  1  1  1  1  1  1  1  1  1  1  1
CENTRE ASSIGNMENTS    1  1  1  1  1  1  1  1  1  1  1  1  1  1  1  1  1  1  1  1
CENTRE ASSIGNMENTS    1  1  1  1  1  1  1  1  1  1  1  1  1  1  1  1  1  1  1  1
CENTRE ASSIGNMENTS    1  1  1  1  1  1  1  1  1  1  1  1  2  2  2  2  2  2  2  2
CENTRE ASSIGNMENTS    2  2  2  2  2  2  2  2  2  2  2  2  2  2  2  2  2  2  2  3
CENTRE ASSIGNMENTS    3  3  3  3  3  3  3  3  3  3  3  3  3  3  3  3  3  3  3  3
CENTRE ASSIGNMENTS    3  3  3  3  3  3
TYPE ASSIGNMENTS      1  1  1  1  1  1  1  1  1  1  1  1  1  1  1  1  2  2  2  3
TYPE ASSIGNMENTS      3  3  4  4  4  2  3  4  2  3  4  2  3  4  5  6  7  8  9 10
TYPE ASSIGNMENTS      5  6  7  8  9 10  5  6  7  8  9 10 11 12 13 17 14 15 18 19
TYPE ASSIGNMENTS     16 20 11 12 13 17 14 15 18 19 16 20  1  1  1  1  1  1  2  3
TYPE ASSIGNMENTS      4  2  3  4  2  3  4  5  6  7  8  9 10  5  6  7  8  9 10  1
TYPE ASSIGNMENTS      1  1  1  1  1  2  3  4  2  3  4  2  3  4  5  6  7  8  9 10
TYPE ASSIGNMENTS      5  6  7  8  9 10
EXPONENTS  0.1533000D+05 0.2299000D+04 0.5224000D+03 0.1473000D+03 0.4755000D+02
EXPONENTS  0.1676000D+02 0.6207000D+01 0.5224000D+03 0.1473000D+03 0.4755000D+02
EXPONENTS  0.1676000D+02 0.6207000D+01 0.6882000D+00 0.1752000D+01 0.2384000D+00
EXPONENTS  0.7376000D-01 0.3446000D+02 0.7749000D+01 0.2280000D+01 0.3446000D+02
EXPONENTS  0.7749000D+01 0.2280000D+01 0.3446000D+02 0.7749000D+01 0.2280000D+01
EXPONENTS  0.7156000D+00 0.7156000D+00 0.7156000D+00 0.2140000D+00 0.2140000D+00
EXPONENTS  0.2140000D+00 0.5974000D-01 0.5974000D-01 0.5974000D-01 0.2314000D+01
EXPONENTS  0.2314000D+01 0.2314000D+01 0.2314000D+01 0.2314000D+01 0.2314000D+01
EXPONENTS  0.6450000D+00 0.6450000D+00 0.6450000D+00 0.6450000D+00 0.6450000D+00
EXPONENTS  0.6450000D+00 0.2140000D+00 0.2140000D+00 0.2140000D+00 0.2140000D+00
EXPONENTS  0.2140000D+00 0.2140000D+00 0.1428000D+01 0.1428000D+01 0.1428000D+01
EXPONENTS  0.1428000D+01 0.1428000D+01 0.1428000D+01 0.1428000D+01 0.1428000D+01
EXPONENTS  0.1428000D+01 0.1428000D+01 0.5000000D+00 0.5000000D+00 0.5000000D+00
EXPONENTS  0.5000000D+00 0.5000000D+00 0.5000000D+00 0.5000000D+00 0.5000000D+00
EXPONENTS  0.5000000D+00 0.5000000D+00 0.3387000D+02 0.5095000D+01 0.1159000D+01
EXPONENTS  0.3258000D+00 0.1027000D+00 0.2526000D-01 0.1407000D+01 0.1407000D+01
EXPONENTS  0.1407000D+01 0.3880000D+00 0.3880000D+00 0.3880000D+00 0.1020000D+00
EXPONENTS  0.1020000D+00 0.1020000D+00 0.1057000D+01 0.1057000D+01 0.1057000D+01
EXPONENTS  0.1057000D+01 0.1057000D+01 0.1057000D+01 0.2470000D+00 0.2470000D+00
EXPONENTS  0.2470000D+00 0.2470000D+00 0.2470000D+00 0.2470000D+00 0.3387000D+02
EXPONENTS  0.5095000D+01 0.1159000D+01 0.3258000D+00 0.1027000D+00 0.2526000D-01
EXPONENTS  0.1407000D+01 0.1407000D+01 0.1407000D+01 0.3880000D+00 0.3880000D+00
EXPONENTS  0.3880000D+00 0.1020000D+00 0.1020000D+00 0.1020000D+00 0.1057000D+01
EXPONENTS  0.1057000D+01 0.1057000D+01 0.1057000D+01 0.1057000D+01 0.1057000D+01
EXPONENTS  0.2470000D+00 0.2470000D+00 0.2470000D+00 0.2470000D+00 0.2470000D+00
EXPONENTS  0.2470000D+00
MO    1     MO 0.0        OCC NO =    2.0000000  ORB. ENERGY =    0.000000
 -0.27876150D-01 -0.51956560D-01 -0.88099649D-01 -0.13332945D+00 -0.16631798D+00
 -0.14272557D+00 -0.54656312D-01 -0.76278890D-04 -0.81842243D-03 -0.30168592D-02
 -0.88211193D-02 -0.10629878D-01  0.12804814D-01  0.41724497D-02  0.51530660D-01
  0.79430973D-02 -0.28853871D+00 -0.27978549D+00 -0.18874164D+00  0.75295339D+00
  0.73011151D+00  0.49252891D+00  0.13585233D+01  0.13173107D+01  0.88864999D+00
 -0.65107923D-01  0.15104284D+00  0.29123500D+00 -0.10618184D-01  0.12264748D-01
  0.33346783D-01 -0.33476866D-03  0.99368163D-04  0.63511759D-03  0.37685508D-01
  0.12691445D-02 -0.38954653D-01  0.35001838D-03  0.12324919D-01 -0.74274511D-01
  0.43547519D-02  0.62791033D-02 -0.10633855D-01 -0.10823514D-03  0.30489778D-02
 -0.65576932D-02 -0.90587345D-03  0.13191263D-02 -0.41325285D-03 -0.26039908D-04
  0.18844026D-03  0.12126275D-02  0.17471352D-02  0.31872005D-02  0.18245508D-02
 -0.35459524D-02 -0.64493320D-02 -0.16045183D-01 -0.16954533D-02 -0.31122696D-02
  0.10571530D-01 -0.12238269D-03  0.46178961D-04  0.17516206D-03  0.63620476D-03
 -0.58752271D-04 -0.18853170D-03  0.11249193D-03 -0.79784611D-04 -0.33695449D-03
 -0.20211062D-02  0.97298244D-04 -0.45366190D-01 -0.81819792D-01 -0.12064323D+00
 -0.90042749D-01 -0.11655164D-01 -0.32206528D-04 -0.43887762D-02 -0.38239668D-01
 -0.19193949D-01 -0.23690340D-02 -0.15357210D-01 -0.62120576D-02 -0.35424776D-03
  0.56504160D-04  0.91528809D-03  0.79728960D-02 -0.85266883D-02  0.55379225D-03
 -0.21048513D-02 -0.16532895D-02 -0.20787739D-01 -0.48167117D-04 -0.24919229D-06
  0.48416310D-04 -0.22407996D-03 -0.15221591D-03  0.57010274D-03 -0.47186624D-02
 -0.85103020D-02 -0.12548435D-01 -0.12274838D-01 -0.30644043D-02 -0.14929589D-03
 -0.39980163D-02  0.11730958D-01  0.14235767D-01 -0.21629081D-02  0.64371687D-02
  0.61954478D-02 -0.33243105D-03  0.23739277D-03  0.10360412D-02 -0.37017983D-03
 -0.44218806D-02  0.47920605D-02  0.19855272D-02 -0.14456162D-02 -0.49677989D-02
  0.34503389D-04 -0.18809263D-03  0.15358924D-03  0.20641669D-03 -0.12379322D-03
 -0.75835052D-03
MO    2     MO 0.0        OCC NO =    2.0000000  ORB. ENERGY =    0.000000
  0.10478627D+00  0.19530438D+00  0.33116603D+00  0.50118457D+00  0.62518825D+00
  0.53650453D+00  0.20545273D+00 -0.65208741D-04 -0.69964700D-03 -0.25790306D-02
 -0.75409341D-02 -0.90871922D-02  0.10946486D-01  0.18464262D-01 -0.18030945D-01
 -0.36717747D-02  0.26829821D+00  0.26015901D+00  0.17550173D+00  0.12484832D+01
  0.12106087D+01  0.81666950D+00 -0.71672292D+00 -0.69498014D+00 -0.46882950D+00
  0.60540714D-01  0.25599140D+00 -0.15724821D+00  0.98733364D-02  0.23584870D-01
 -0.19400345D-01  0.31128521D-03  0.22262018D-03 -0.37443107D-03 -0.22020132D-01
  0.20534824D-02  0.19966649D-01 -0.32546519D-03 -0.11460347D-01 -0.11614828D+00
 -0.33596984D-02 -0.23815121D-02  0.57412104D-02  0.10064263D-03 -0.28350972D-02
 -0.14276924D-01  0.29029753D-03 -0.60333484D-03  0.31303731D-03  0.24213253D-04
 -0.17522150D-03  0.95814414D-03 -0.16245767D-02  0.58370450D-02 -0.77894517D-03
  0.32972099D-02 -0.11876163D-01  0.96570178D-02  0.15765201D-02 -0.56349717D-02
 -0.73201823D-02  0.11379775D-03 -0.42939585D-04  0.19549936D-04 -0.28460122D-03
  0.54630900D-04 -0.63956963D-03  0.12566677D-03  0.74187857D-04  0.58091983D-03
  0.72813689D-03 -0.90472939D-04 -0.17300570D-01 -0.31202290D-01 -0.46007758D-01
 -0.33054693D-01 -0.34416088D-02  0.12701959D-03  0.40809111D-02 -0.38145008D-02
 -0.25321189D-01  0.22028503D-02 -0.79769978D-03 -0.10488157D-01  0.32939788D-03
  0.25045442D-03 -0.71553879D-03  0.45891862D-02  0.95334309D-03 -0.55425293D-02
  0.19571996D-02  0.15373141D-02 -0.15529508D-01  0.69042591D-05  0.22601219D-03
 -0.23291645D-03  0.20836113D-03  0.14153823D-03 -0.64911888D-03  0.46348969D-01
  0.83592274D-01  0.12325676D+00  0.86383932D-01  0.11399055D-01 -0.45358146D-04
  0.37175623D-02 -0.31734230D-01  0.24849521D-01  0.20111838D-02 -0.12680593D-01
  0.95270714D-02  0.30911158D-03  0.65179904D-04 -0.30549319D-03 -0.80506467D-02
  0.66372304D-02  0.14134163D-02 -0.18462459D-02  0.13442087D-02 -0.22011183D-01
 -0.13715170D-03  0.23203634D-04  0.11394806D-03 -0.19193691D-03  0.11510934D-03
 -0.32653789D-03
MO    3     MO 0.0        OCC NO =    2.0000000  ORB. ENERGY =    0.000000
  0.31939414D-01  0.59529815D-01  0.10094117D+00  0.15276372D+00  0.19056070D+00
  0.16352943D+00  0.62623086D-01 -0.16427209D-03 -0.17625317D-02 -0.64970239D-02
 -0.18996917D-01 -0.22892208D-01  0.27576091D-01  0.20755345D-01  0.21187543D-01
  0.27299075D-02  0.17231628D+01  0.16708882D+01  0.11271713D+01 -0.10714184D+00
 -0.10389154D+00 -0.70084619D-01  0.38790041D+00  0.37613292D+00  0.25373704D+00
  0.38882669D+00 -0.22474757D-01  0.83658705D-01  0.63412148D-01 -0.23330183D-02
  0.10334577D-01  0.19992496D-02 -0.25738664D-04  0.19582838D-03  0.86006063D-02
  0.22852536D-02 -0.10885860D-01 -0.20903214D-02 -0.73604828D-01  0.95933369D-02
  0.94601681D-03  0.20146941D-02 -0.29607110D-02  0.64638388D-03 -0.18208597D-01
  0.15015137D-02 -0.20979784D-03  0.34231122D-03 -0.13251338D-03  0.15551120D-03
 -0.11253715D-02  0.16377252D-04 -0.10433950D-01 -0.52495069D-03  0.75317800D-03
  0.21176546D-01  0.11458049D-02 -0.40337880D-02  0.10125303D-01  0.42904719D-03
  0.17742540D-02  0.73087348D-03 -0.27578229D-03  0.21139763D-04  0.11696613D-03
  0.35087052D-03  0.68695164D-04 -0.47597337D-04  0.47647635D-03 -0.13211445D-03
 -0.30330107D-03 -0.58106836D-03 -0.28259328D-02 -0.50966862D-02 -0.75150608D-02
 -0.87297974D-02 -0.18474783D-02 -0.41028512D-04  0.26209918D-01 -0.42019518D-02
  0.33471135D-02  0.14147950D-01 -0.26835867D-02  0.11018302D-02  0.21155794D-02
 -0.95383157D-04  0.28853465D-03  0.45725326D-03 -0.17397603D-02  0.12825070D-02
  0.12570242D-01  0.98734999D-02 -0.39524437D-03  0.75330896D-05 -0.62623090D-04
  0.55090000D-04  0.13382130D-02  0.90903852D-03  0.18897080D-03 -0.80273493D-02
 -0.14477655D-01 -0.21347294D-01 -0.17932810D-01 -0.31306279D-02 -0.27061611D-04
  0.23876287D-01  0.64565362D-02 -0.58154670D-03  0.12916959D-01  0.36412174D-02
 -0.49237691D-03  0.19852893D-02  0.79937487D-04  0.23878948D-03  0.14032558D-02
 -0.20974809D-02  0.69422511D-03 -0.11857635D-01  0.86332683D-02  0.30567373D-02
  0.43805816D-04 -0.55645417D-04  0.11839602D-04 -0.12327274D-02  0.73929726D-03
 -0.53779575D-04
MO    4     MO 0.0        OCC NO =    2.0000000  ORB. ENERGY =    0.000000
  0.49500095D+00  0.92260039D+00  0.15643986D+01  0.23675509D+01  0.29533332D+01
  0.25343993D+01  0.97054027D+00  0.30645604D-03  0.32880722D-02  0.12120453D-01
  0.35439494D-01  0.42706314D-01 -0.51444281D-01  0.26658933D-01 -0.53953102D-02
  0.36564061D-03 -0.19991954D+00 -0.19385471D+00 -0.13077324D+00 -0.22154415D+00
 -0.21482330D+00 -0.14491853D+00  0.16255015D+00  0.15761896D+00  0.10632882D+00
 -0.45111266D-01 -0.46866211D-01  0.36063450D-01 -0.73570111D-02 -0.47190360D-02
  0.34181961D-02 -0.23195085D-03 -0.53569303D-04  0.63540957D-04  0.54209129D-02
 -0.89980956D-03 -0.45211034D-02  0.24251691D-03  0.85395553D-02  0.21671169D-01
  0.15100458D-02 -0.10118667D-03 -0.14088592D-02 -0.74992783D-04  0.21125424D-02
  0.33106001D-02 -0.72749214D-04  0.13522807D-03 -0.62478859D-04 -0.18042247D-04
  0.13056443D-03 -0.53870462D-04  0.12105359D-02 -0.10192428D-02  0.52242489D-03
 -0.24568807D-02  0.26924370D-02 -0.14576625D-02 -0.11747271D-02  0.36529148D-03
 -0.10961219D-03 -0.84795177D-04  0.31995973D-04 -0.58533955D-05 -0.13835023D-04
 -0.40707631D-04  0.13528101D-03 -0.32648597D-03 -0.55280289D-04 -0.11772082D-03
  0.36799103D-03  0.67414944D-04 -0.83572210D-03 -0.15072592D-02 -0.22224529D-02
  0.79206170D-05  0.27500381D-03 -0.23567626D-04 -0.30408473D-02 -0.48476385D-02
  0.42945175D-03 -0.16414303D-02 -0.17370306D-02  0.41428864D-03 -0.24544731D-03
 -0.89041088D-04  0.86311299D-04  0.11802081D-02 -0.17987218D-02  0.61851365D-03
 -0.14583863D-02 -0.11455131D-02 -0.30937075D-02  0.63712001D-05 -0.45754852D-04
  0.39383652D-04 -0.15525807D-03 -0.10546570D-03  0.84504157D-04 -0.11851213D-01
 -0.21374151D-01 -0.31516173D-01 -0.19398245D-01 -0.18934432D-02  0.22930851D-04
 -0.27701018D-02  0.98483788D-02 -0.72431413D-02 -0.14986121D-02  0.32929400D-02
 -0.24691252D-02 -0.23033119D-03 -0.51902493D-04  0.59346958D-04  0.28190844D-02
 -0.24246144D-02 -0.39446994D-03  0.13757104D-02 -0.10016228D-02  0.79440461D-02
  0.19878060D-04  0.14864695D-04 -0.34742756D-04  0.14301974D-03 -0.85772495D-04
  0.57674825D-04
MO    5     MO 0.0        OCC NO =    2.0000000  ORB. ENERGY =    0.000000
 -0.38864874D-01 -0.72437735D-01 -0.12282836D+00 -0.18588766D+00 -0.23188020D+00
 -0.19898771D+00 -0.76201723D-01 -0.17005741D-02 -0.18246045D-01 -0.67258356D-01
 -0.19665949D+00 -0.23698425D+00  0.28547264D+00  0.17107431D+00  0.89487316D-01
  0.67756454D-02 -0.19982668D+00 -0.19376466D+00 -0.13071249D+00 -0.11320914D+00
 -0.10977479D+00 -0.74053424D-01  0.25840672D+00  0.25056759D+00  0.16903142D+00
 -0.45090311D-01 -0.21307788D-01  0.53675483D-01 -0.73535936D-02 -0.14403417D-02
  0.11499355D-01 -0.23184310D-03 -0.12937821D-04  0.20530742D-03 -0.15239164D-01
  0.21531168D-01 -0.62920038D-02  0.24240425D-03  0.85355885D-02  0.12346128D-01
 -0.41519094D-02  0.52102921D-02 -0.10583827D-02 -0.74957947D-04  0.21115611D-02
 -0.64185551D-04 -0.38563269D-04  0.10174097D-03 -0.63177700D-04 -0.18033866D-04
  0.13050378D-03 -0.26938931D-03  0.12099736D-02 -0.27209046D-03  0.22917972D-02
 -0.24557394D-02  0.55381066D-03  0.28082280D-02 -0.11741814D-02  0.26246071D-03
 -0.96836195D-02 -0.84755788D-04  0.31981110D-04 -0.38525198D-04 -0.27829175D-03
 -0.40688722D-04 -0.12945750D-03 -0.77512875D-04 -0.55254610D-04  0.24503310D-03
  0.91238811D-03  0.67383628D-04  0.18744869D-01  0.33807143D-01  0.49848612D-01
  0.10348258D-01 -0.39979442D-02 -0.11317416D-03 -0.30394348D-02  0.18709671D-01
  0.22150861D-01 -0.16406679D-02 -0.29956997D-03  0.39748128D-02 -0.24533330D-03
 -0.47874897D-03  0.11941861D-03 -0.25884608D-02  0.38918378D-03  0.21992770D-02
 -0.14577089D-02 -0.11449810D-02  0.88524225D-02  0.13740653D-03 -0.19042462D-03
  0.53018091D-04 -0.15518595D-03 -0.10541671D-03 -0.14973342D-03  0.11678730D-01
  0.21063071D-01  0.31057485D-01 -0.15245347D-02 -0.53721539D-02 -0.10162683D-03
 -0.27688151D-02 -0.13723359D-01  0.15040324D-01 -0.14979160D-02  0.17842186D-02
  0.20700466D-02 -0.23022420D-03  0.48598253D-03  0.93617452D-04 -0.99443594D-03
 -0.36497844D-03  0.13594144D-02  0.13750713D-02 -0.10011575D-02 -0.39688041D-02
  0.12389447D-03 -0.19196814D-03  0.68073676D-04  0.14295330D-03 -0.85732652D-04
  0.13513041D-03
END DATA
 TOTAL ENERGY =    -76.464424752150 THE VIRIAL(-V/T)=   2.00483478
