 44
GAUSSIAN              5 MOL ORBITALS    126 PRIMITIVES        3 NUCLEI   B3LYP   B3LYP   B3LYP
  O    1    (CENTRE  1)   0.00000000  0.00000000  0.00815606  CHARGE =  8.0
  H    2    (CENTRE  2)   0.00000000 -1.53704465 -1.09730160  CHARGE =  1.0
  H    3    (CENTRE  3)   0.00000000  1.44255835 -1.09730160  CHARGE =  1.0
CENTRE ASSIGNMENTS    1  1  1  1  1  1  1  1  1  1  1  1  1  1  1  1  1  1  1  1
CENTRE ASSIGNMENTS    1  1  1  1  1  1  1  1  1  1  1  1  1  1  1  1  1  1  1  1
CENTRE ASSIGNMENTS    1  1  1  1  1  1  1  1  1  1  1  1  1  1  1  1  1  1  1  1
CENTRE ASSIGNMENTS    1  1  1  1  1  1  1  1  1  1  1  1  2  2  2  2  2  2  2  2
CENTRE ASSIGNMENTS    2  2  2  2  2  2  2  2  2  2  2  2  2  2  2  2  2  2  2  3
CENTRE ASSIGNMENTS    3  3  3  3  3  3  3  3  3  3  3  3  3  3  3  3  3  3  3  3
CENTRE ASSIGNMENTS    3  3  3  3  3  3
TYPE ASSIGNMENTS      1  1  1  1  1  1  1  1  1  1  1  1  1  1  1  1  2  2  2  3
TYPE ASSIGNMENTS      3  3  4  4  4  2  3  4  2  3  4  2  3  4  5  6  7  8  9 10
TYPE ASSIGNMENTS      5  6  7  8  9 10  5  6  7  8  9 10 11 12 13 17 14 15 18 19
TYPE ASSIGNMENTS     16 20 11 12 13 17 14 15 18 19 16 20  1  1  1  1  1  1  2  3
TYPE ASSIGNMENTS      4  2  3  4  2  3  4  5  6  7  8  9 10  5  6  7  8  9 10  1
TYPE ASSIGNMENTS      1  1  1  1  1  2  3  4  2  3  4  2  3  4  5  6  7  8  9 10
TYPE ASSIGNMENTS      5  6  7  8  9 10
EXPONENTS  0.1533000D+05 0.2299000D+04 0.5224000D+03 0.1473000D+03 0.4755000D+02
EXPONENTS  0.1676000D+02 0.6207000D+01 0.5224000D+03 0.1473000D+03 0.4755000D+02
EXPONENTS  0.1676000D+02 0.6207000D+01 0.6882000D+00 0.1752000D+01 0.2384000D+00
EXPONENTS  0.7376000D-01 0.3446000D+02 0.7749000D+01 0.2280000D+01 0.3446000D+02
EXPONENTS  0.7749000D+01 0.2280000D+01 0.3446000D+02 0.7749000D+01 0.2280000D+01
EXPONENTS  0.7156000D+00 0.7156000D+00 0.7156000D+00 0.2140000D+00 0.2140000D+00
EXPONENTS  0.2140000D+00 0.5974000D-01 0.5974000D-01 0.5974000D-01 0.2314000D+01
EXPONENTS  0.2314000D+01 0.2314000D+01 0.2314000D+01 0.2314000D+01 0.2314000D+01
EXPONENTS  0.6450000D+00 0.6450000D+00 0.6450000D+00 0.6450000D+00 0.6450000D+00
EXPONENTS  0.6450000D+00 0.2140000D+00 0.2140000D+00 0.2140000D+00 0.2140000D+00
EXPONENTS  0.2140000D+00 0.2140000D+00 0.1428000D+01 0.1428000D+01 0.1428000D+01
EXPONENTS  0.1428000D+01 0.1428000D+01 0.1428000D+01 0.1428000D+01 0.1428000D+01
EXPONENTS  0.1428000D+01 0.1428000D+01 0.5000000D+00 0.5000000D+00 0.5000000D+00
EXPONENTS  0.5000000D+00 0.5000000D+00 0.5000000D+00 0.5000000D+00 0.5000000D+00
EXPONENTS  0.5000000D+00 0.5000000D+00 0.3387000D+02 0.5095000D+01 0.1159000D+01
EXPONENTS  0.3258000D+00 0.1027000D+00 0.2526000D-01 0.1407000D+01 0.1407000D+01
EXPONENTS  0.1407000D+01 0.3880000D+00 0.3880000D+00 0.3880000D+00 0.1020000D+00
EXPONENTS  0.1020000D+00 0.1020000D+00 0.1057000D+01 0.1057000D+01 0.1057000D+01
EXPONENTS  0.1057000D+01 0.1057000D+01 0.1057000D+01 0.2470000D+00 0.2470000D+00
EXPONENTS  0.2470000D+00 0.2470000D+00 0.2470000D+00 0.2470000D+00 0.3387000D+02
EXPONENTS  0.5095000D+01 0.1159000D+01 0.3258000D+00 0.1027000D+00 0.2526000D-01
EXPONENTS  0.1407000D+01 0.1407000D+01 0.1407000D+01 0.3880000D+00 0.3880000D+00
EXPONENTS  0.3880000D+00 0.1020000D+00 0.1020000D+00 0.1020000D+00 0.1057000D+01
EXPONENTS  0.1057000D+01 0.1057000D+01 0.1057000D+01 0.1057000D+01 0.1057000D+01
EXPONENTS  0.2470000D+00 0.2470000D+00 0.2470000D+00 0.2470000D+00 0.2470000D+00
EXPONENTS  0.2470000D+00
MO    1     MO 0.0        OCC NO =    2.0000000  ORB. ENERGY =    0.000000
  0.49976239D+00  0.93147492D+00  0.15794466D+01  0.23903245D+01  0.29817414D+01
  0.25587778D+01  0.97987594D+00  0.39101433D-03  0.41953271D-02  0.15464766D-01
  0.45218068D-01  0.54489970D-01 -0.65638944D-01  0.18632152D-01 -0.24401685D-01
 -0.25740639D-02  0.17728054D-02  0.17190249D-02  0.11596441D-02 -0.19664655D+00
 -0.19068100D+00 -0.12863228D+00 -0.27106534D+00 -0.26284220D+00 -0.17731179D+00
  0.40048987D-03 -0.40506837D-01 -0.57187758D-01  0.66366923D-04 -0.38727611D-02
 -0.81090242D-02  0.21600360D-05 -0.35305202D-04 -0.16606254D-03 -0.50456615D-02
 -0.16677706D-02  0.67134321D-02  0.22855537D-05 -0.69902261D-04  0.17051783D-01
  0.34718977D-03 -0.23392669D-02  0.19920771D-02 -0.42791015D-06 -0.18548932D-04
  0.22344189D-02  0.15327168D-03 -0.27184231D-03  0.11857063D-03 -0.15505488D-06
 -0.13115848D-05 -0.96510547D-04 -0.10465214D-04 -0.97707413D-03 -0.23408466D-03
  0.22597551D-04  0.17922247D-02  0.29937704D-02  0.87980910D-05  0.11389977D-02
 -0.22915164D-02 -0.10098881D-05 -0.45995128D-06  0.72541219D-05 -0.18762780D-03
  0.76125210D-06  0.12671129D-03 -0.23556467D-03  0.61860174D-06 -0.14847365D-03
  0.79844805D-03  0.52806872D-06  0.60616432D-02  0.10932423D-01  0.16119852D-01
  0.15955639D-01  0.34890373D-02  0.30783054D-04  0.22468879D-04  0.29677615D-02
  0.19240364D-03  0.12332404D-04  0.27899602D-02  0.73740344D-03  0.19583210D-05
  0.11830870D-03 -0.14090602D-03 -0.48126587D-03  0.86329896D-03 -0.38203308D-03
  0.11649046D-04  0.81547812D-05  0.81321518D-03 -0.77394813D-04  0.86518961D-04
 -0.91241490D-05  0.11775215D-05  0.66732987D-06  0.87305357D-04 -0.39694721D-02
 -0.71591063D-02 -0.10556098D-01 -0.28296993D-02  0.88727797D-03  0.50378186D-04
  0.24664861D-04  0.27733740D-02 -0.73308338D-02  0.13472321D-04 -0.33883408D-03
 -0.25049821D-02  0.20860763D-05 -0.12481681D-03 -0.23821575D-03  0.17233975D-02
 -0.40247734D-03 -0.13209201D-02 -0.12309325D-04  0.92049760D-05  0.55930262D-02
 -0.26241346D-04  0.97646751D-04 -0.71405404D-04 -0.12890550D-05  0.82810676D-06
  0.16462263D-03
MO    2     MO 0.0        OCC NO =    2.0000000  ORB. ENERGY =    0.000000
 -0.63597226D-01 -0.11853477D+00 -0.20099236D+00 -0.30418057D+00 -0.37944128D+00
 -0.32561707D+00 -0.12469404D+00 -0.60615602D-03 -0.65036563D-02 -0.23973702D-01
 -0.70097697D-01 -0.84471134D-01  0.10175443D+00  0.54283174D-01 -0.14218004D-01
 -0.62170554D-02 -0.32073108D+00 -0.31100126D+00 -0.20979961D+00  0.63479433D-01
  0.61553696D-01  0.41523760D-01 -0.13542666D+01 -0.13131830D+01 -0.88586551D+00
 -0.72455523D-01  0.10106046D-01 -0.29683786D+00 -0.12006921D-01 -0.36138060D-03
 -0.35357524D-01 -0.39078777D-03 -0.97956741D-05 -0.70862175D-03 -0.44177059D-01
  0.10164309D-01  0.34012750D-01 -0.41349608D-03  0.12646524D-01 -0.99085112D-02
 -0.72465480D-02 -0.32173502D-02  0.10463898D-01  0.77416325D-04  0.33558217D-02
  0.91735499D-03  0.58767619D-03 -0.11605293D-02  0.57285311D-03  0.28052102D-04
  0.23728831D-03  0.54539397D-03  0.18933377D-02 -0.13344389D-03 -0.42476264D-04
 -0.40882867D-02  0.20626018D-03  0.17833016D-01 -0.15917264D-02  0.19407149D-03
 -0.17705588D-01  0.18270617D-03  0.83213118D-04  0.13104378D-03 -0.58995536D-03
 -0.13772363D-03  0.12843475D-03  0.42066906D-03 -0.11191572D-03 -0.52156610D-03
  0.13491970D-02 -0.95536739D-04  0.28746662D-01  0.51845789D-01  0.76446586D-01
  0.48743559D-01  0.72466165D-02  0.91009598D-04 -0.40650076D-02  0.26601024D-01
  0.34891113D-02 -0.22311445D-02  0.10967645D-01  0.11383999D-03 -0.35429405D-03
  0.22965451D-03 -0.84564043D-03 -0.33826189D-02  0.62665361D-02 -0.28839172D-02
 -0.21075133D-02 -0.14753406D-02  0.70065674D-02 -0.22125440D-03  0.32773338D-03
 -0.10647898D-03 -0.21303394D-03 -0.12073148D-03 -0.16291367D-03  0.33923882D-01
  0.61183118D-01  0.90214472D-01  0.59091022D-01  0.76005688D-02  0.65881065D-04
 -0.44622987D-02 -0.32716586D-01  0.85004512D-02 -0.24373753D-02 -0.12642006D-01
  0.14599376D-02 -0.37740717D-03 -0.14210834D-03 -0.91960864D-03 -0.48235691D-02
  0.74787171D-02 -0.26551480D-02  0.22269691D-02 -0.16653389D-02 -0.11871015D-01
 -0.10073901D-03  0.27206973D-03 -0.17133072D-03  0.23321228D-03 -0.14981879D-03
  0.37060200D-03
MO    3     MO 0.0        OCC NO =    2.0000000  ORB. ENERGY =    0.000000
 -0.53173593D-02 -0.99106835D-02 -0.16804957D-01 -0.25432515D-01 -0.31725058D-01
 -0.27224819D-01 -0.10425659D-01 -0.24986098D-03 -0.26808444D-02 -0.98820971D-02
 -0.28894672D-01 -0.34819485D-01  0.41943760D-01  0.25105336D-01  0.64850706D-02
 -0.24967140D-03  0.17514559D+01  0.16983230D+01  0.11456787D+01  0.11337778D+00
  0.10993831D+00  0.74163736D-01 -0.17136575D+00 -0.16616713D+00 -0.11209536D+00
  0.39566684D+00  0.23206004D-01 -0.37810602D-01  0.65567677D-01  0.20650381D-02
 -0.39903041D-02  0.21340231D-02  0.21379816D-04 -0.80516179D-04 -0.78175198D-02
  0.35278943D-02  0.42896255D-02  0.22580292D-02 -0.69060440D-01 -0.11251780D-01
 -0.14738160D-02  0.93861215D-04  0.13799547D-02 -0.42275690D-03 -0.18325551D-01
 -0.12103658D-02  0.82178794D-04 -0.15428719D-03  0.72108392D-04 -0.15318758D-03
 -0.12957896D-02  0.13225615D-03 -0.10339183D-01  0.46326204D-03  0.23438268D-03
  0.22325413D-01 -0.11096717D-02  0.28229484D-02  0.86921371D-02 -0.28011446D-03
 -0.35260965D-02 -0.99772617D-03 -0.45441216D-03  0.30228881D-04 -0.10555385D-03
  0.75208447D-03 -0.41377763D-04  0.62186454D-04  0.61115202D-03 -0.49308879D-04
  0.25447510D-03  0.52170928D-03  0.27889081D-02  0.50299106D-02  0.74166003D-02
  0.26113002D-02 -0.13944683D-04  0.11668796D-04  0.22198290D-01  0.38678963D-02
  0.27444226D-03  0.12183887D-01  0.97219874D-03 -0.43393540D-03  0.19347373D-02
  0.43559961D-05 -0.12449434D-03 -0.14090730D-03  0.61065895D-03 -0.46975165D-03
  0.11508758D-01  0.80565746D-02  0.14427422D-03 -0.13016691D-04  0.35368238D-04
 -0.22351547D-04  0.11633408D-02  0.65929333D-03 -0.84101633D-04  0.89743510D-02
  0.16185612D-01  0.23865675D-01  0.13790956D-01  0.11900234D-02 -0.10600505D-04
  0.24367826D-01 -0.77128713D-02  0.48522244D-02  0.13310076D-01 -0.22320461D-02
  0.12428349D-02  0.20609540D-02  0.54599241D-04 -0.11292886D-03 -0.13223584D-02
  0.13130515D-02  0.93069643D-05 -0.12161086D-01  0.90941220D-02 -0.37242551D-02
 -0.40815091D-05  0.59513766D-05 -0.18698675D-05 -0.12735311D-02  0.81813401D-03
  0.26697945D-04
MO    4     MO 0.0        OCC NO =    2.0000000  ORB. ENERGY =    0.000000
  0.71588284D-01  0.13342879D+00  0.22624727D+00  0.34240118D+00  0.42711848D+00
  0.36653120D+00  0.14036198D+00  0.26120659D-04  0.28025753D-03  0.10330820D-02
  0.30206712D-02  0.36400557D-02 -0.43848328D-02  0.66445361D-02 -0.18884053D-02
  0.20857560D-03 -0.13077398D+00 -0.12680677D+00 -0.85543096D-01  0.14391308D+01
  0.13954727D+01  0.94137767D+00  0.58856730D-01  0.57071229D-01  0.38499914D-01
 -0.29542809D-01  0.30209658D+00  0.15841292D-01 -0.48956677D-02  0.29890389D-01
  0.32339334D-02 -0.15933869D-03  0.31708231D-03  0.64215724D-04  0.13797880D-02
 -0.40125431D-03 -0.97853370D-03 -0.16859771D-03  0.51564578D-02 -0.13296117D+00
  0.96316669D-03 -0.57524212D-03 -0.38792457D-03  0.31565512D-04  0.13682932D-02
 -0.19766674D-01  0.15039829D-03 -0.83056778D-04 -0.67341511D-04  0.11437884D-04
  0.96751261D-04  0.58309199D-03  0.77198412D-03  0.70051597D-02 -0.35116952D-04
 -0.16669464D-02 -0.16315948D-01 -0.11988252D-02 -0.64900598D-03 -0.46995313D-02
  0.13041761D-02  0.74496093D-04  0.33929080D-04  0.13043662D-03 -0.89397035D-04
 -0.56155042D-04 -0.10438297D-02 -0.24626857D-03 -0.45632198D-04  0.65251989D-03
  0.51445967D-03 -0.38953878D-04 -0.38051437D-01 -0.68627334D-01 -0.10119096D+00
 -0.68128025D-01 -0.88006003D-02  0.12413780D-03 -0.16574546D-02 -0.20166576D-01
 -0.23326264D-01 -0.90972050D-03 -0.76033678D-02 -0.97257899D-02 -0.14445884D-03
  0.23736419D-03 -0.13874474D-03  0.64594817D-02 -0.40784339D-02 -0.23810478D-02
 -0.85931145D-03 -0.60155115D-03 -0.18718211D-01  0.14023515D-03  0.58572888D-04
 -0.19880804D-03 -0.86861851D-04 -0.49226710D-04 -0.82103959D-03  0.35469216D-01
  0.63970191D-01  0.94324010D-01  0.65081948D-01  0.73449142D-02 -0.13110712D-03
 -0.18194450D-02 -0.18769099D-01  0.27174762D-01 -0.99380844D-03 -0.62872596D-02
  0.10788489D-01 -0.15388293D-03  0.40921941D-03  0.19842408D-03 -0.64960596D-02
  0.28314042D-02  0.36646554D-02  0.90801803D-03 -0.67902054D-03 -0.19499162D-01
 -0.52155348D-05 -0.25434892D-03  0.25956446D-03  0.95089311D-04 -0.61086688D-04
 -0.50547408D-03
MO    5     MO 0.0        OCC NO =    2.0000000  ORB. ENERGY =    0.000000
  0.16654493D-01  0.31041237D-01  0.52634780D-01  0.79657143D-01  0.99366007D-01
  0.85270817D-01  0.32654193D-01 -0.15701400D-02 -0.16846572D-01 -0.62099636D-01
 -0.18157569D+00 -0.21880754D+00  0.26357687D+00  0.16423917D+00  0.10293191D+00
  0.97355586D-02 -0.15662942D+00 -0.15187785D+00 -0.10245590D+00 -0.65971702D-01
 -0.63970359D-01 -0.43154026D-01  0.80469150D+00  0.78028007D+00  0.52637233D+00
 -0.35383744D-01 -0.13887646D-01  0.17115889D+00 -0.58635946D-02 -0.11685004D-02
  0.24989719D-01 -0.19084169D-03 -0.60085937D-05  0.49520930D-03  0.18357322D-02
  0.18952112D-01 -0.20787845D-01 -0.20193132D-03  0.61759458D-02  0.56762137D-02
 -0.24418918D-02  0.80915682D-02 -0.56496764D-02  0.37806358D-04  0.16388197D-02
  0.11160179D-02 -0.40828826D-03  0.71742822D-03 -0.30913996D-03  0.13699278D-04
  0.11588004D-03 -0.12582778D-03  0.92461380D-03 -0.40632301D-03  0.27345550D-02
 -0.19965198D-02  0.81200369D-03 -0.39152960D-02 -0.77732155D-03  0.40696534D-03
 -0.42883691D-02  0.89224784D-04  0.40637229D-04 -0.39137721D-04  0.10025119D-03
 -0.67257506D-04  0.14726518D-03  0.36922177D-04 -0.54654181D-04 -0.29852016D-04
 -0.33767574D-03 -0.46655484D-04  0.41600443D-02  0.75028111D-02  0.11062891D-01
 -0.13550062D-01 -0.76075348D-02 -0.15917602D-03 -0.19851515D-02  0.56515498D-02
  0.15402065D-01 -0.10895822D-02 -0.52074041D-02  0.30432135D-02 -0.17301993D-03
 -0.61839803D-03  0.45375402D-03 -0.47674199D-04 -0.25885764D-02  0.26362506D-02
 -0.10292067D-02 -0.72048438D-03  0.29034301D-02  0.18954733D-03 -0.32353310D-03
  0.13398577D-03 -0.10403539D-03 -0.58959368D-04  0.79656597D-04  0.12274127D-02
  0.22136893D-02  0.32640836D-02 -0.21158977D-01 -0.83791143D-02 -0.14340673D-03
 -0.21791691D-02 -0.35504283D-02  0.14080050D-01 -0.11902952D-02  0.61735731D-02
  0.18721175D-02 -0.18430726D-03  0.55845319D-03  0.45193390D-03  0.53366002D-03
 -0.30000289D-02  0.24663689D-02  0.10875431D-02 -0.81327031D-03 -0.99321374D-03
  0.16470139D-03 -0.27710194D-03  0.11240055D-03  0.11388951D-03 -0.73164193D-04
 -0.36446588D-04
END DATA
 TOTAL ENERGY =    -76.464666781331 THE VIRIAL(-V/T)=   2.00691325
