 50
GAUSSIAN              5 MOL ORBITALS    126 PRIMITIVES        3 NUCLEI   B3LYP   B3LYP   B3LYP
  O    1    (CENTRE  1)   0.09448631  0.00000000  0.00815606  CHARGE =  8.0
  H    2    (CENTRE  2)   0.00000000 -1.44255835 -1.00281530  CHARGE =  1.0
  H    3    (CENTRE  3)   0.00000000  1.44255835 -1.09730160  CHARGE =  1.0
CENTRE ASSIGNMENTS    1  1  1  1  1  1  1  1  1  1  1  1  1  1  1  1  1  1  1  1
CENTRE ASSIGNMENTS    1  1  1  1  1  1  1  1  1  1  1  1  1  1  1  1  1  1  1  1
CENTRE ASSIGNMENTS    1  1  1  1  1  1  1  1  1  1  1  1  1  1  1  1  1  1  1  1
CENTRE ASSIGNMENTS    1  1  1  1  1  1  1  1  1  1  1  1  2  2  2  2  2  2  2  2
CENTRE ASSIGNMENTS    2  2  2  2  2  2  2  2  2  2  2  2  2  2  2  2  2  2  2  3
CENTRE ASSIGNMENTS    3  3  3  3  3  3  3  3  3  3  3  3  3  3  3  3  3  3  3  3
CENTRE ASSIGNMENTS    3  3  3  3  3  3
TYPE ASSIGNMENTS      1  1  1  1  1  1  1  1  1  1  1  1  1  1  1  1  2  2  2  3
TYPE ASSIGNMENTS      3  3  4  4  4  2  3  4  2  3  4  2  3  4  5  6  7  8  9 10
TYPE ASSIGNMENTS      5  6  7  8  9 10  5  6  7  8  9 10 11 12 13 17 14 15 18 19
TYPE ASSIGNMENTS     16 20 11 12 13 17 14 15 18 19 16 20  1  1  1  1  1  1  2  3
TYPE ASSIGNMENTS      4  2  3  4  2  3  4  5  6  7  8  9 10  5  6  7  8  9 10  1
TYPE ASSIGNMENTS      1  1  1  1  1  2  3  4  2  3  4  2  3  4  5  6  7  8  9 10
TYPE ASSIGNMENTS      5  6  7  8  9 10
EXPONENTS  0.1533000D+05 0.2299000D+04 0.5224000D+03 0.1473000D+03 0.4755000D+02
EXPONENTS  0.1676000D+02 0.6207000D+01 0.5224000D+03 0.1473000D+03 0.4755000D+02
EXPONENTS  0.1676000D+02 0.6207000D+01 0.6882000D+00 0.1752000D+01 0.2384000D+00
EXPONENTS  0.7376000D-01 0.3446000D+02 0.7749000D+01 0.2280000D+01 0.3446000D+02
EXPONENTS  0.7749000D+01 0.2280000D+01 0.3446000D+02 0.7749000D+01 0.2280000D+01
EXPONENTS  0.7156000D+00 0.7156000D+00 0.7156000D+00 0.2140000D+00 0.2140000D+00
EXPONENTS  0.2140000D+00 0.5974000D-01 0.5974000D-01 0.5974000D-01 0.2314000D+01
EXPONENTS  0.2314000D+01 0.2314000D+01 0.2314000D+01 0.2314000D+01 0.2314000D+01
EXPONENTS  0.6450000D+00 0.6450000D+00 0.6450000D+00 0.6450000D+00 0.6450000D+00
EXPONENTS  0.6450000D+00 0.2140000D+00 0.2140000D+00 0.2140000D+00 0.2140000D+00
EXPONENTS  0.2140000D+00 0.2140000D+00 0.1428000D+01 0.1428000D+01 0.1428000D+01
EXPONENTS  0.1428000D+01 0.1428000D+01 0.1428000D+01 0.1428000D+01 0.1428000D+01
EXPONENTS  0.1428000D+01 0.1428000D+01 0.5000000D+00 0.5000000D+00 0.5000000D+00
EXPONENTS  0.5000000D+00 0.5000000D+00 0.5000000D+00 0.5000000D+00 0.5000000D+00
EXPONENTS  0.5000000D+00 0.5000000D+00 0.3387000D+02 0.5095000D+01 0.1159000D+01
EXPONENTS  0.3258000D+00 0.1027000D+00 0.2526000D-01 0.1407000D+01 0.1407000D+01
EXPONENTS  0.1407000D+01 0.3880000D+00 0.3880000D+00 0.3880000D+00 0.1020000D+00
EXPONENTS  0.1020000D+00 0.1020000D+00 0.1057000D+01 0.1057000D+01 0.1057000D+01
EXPONENTS  0.1057000D+01 0.1057000D+01 0.1057000D+01 0.2470000D+00 0.2470000D+00
EXPONENTS  0.2470000D+00 0.2470000D+00 0.2470000D+00 0.2470000D+00 0.3387000D+02
EXPONENTS  0.5095000D+01 0.1159000D+01 0.3258000D+00 0.1027000D+00 0.2526000D-01
EXPONENTS  0.1407000D+01 0.1407000D+01 0.1407000D+01 0.3880000D+00 0.3880000D+00
EXPONENTS  0.3880000D+00 0.1020000D+00 0.1020000D+00 0.1020000D+00 0.1057000D+01
EXPONENTS  0.1057000D+01 0.1057000D+01 0.1057000D+01 0.1057000D+01 0.1057000D+01
EXPONENTS  0.2470000D+00 0.2470000D+00 0.2470000D+00 0.2470000D+00 0.2470000D+00
EXPONENTS  0.2470000D+00
MO    1     MO 0.0        OCC NO =    2.0000000  ORB. ENERGY =    0.000000
  0.43836157D-01  0.81703388D-01  0.13853958D+00  0.20966492D+00  0.26154046D+00
  0.22444062D+00  0.85948835D-01 -0.34917063D-03 -0.37463717D-02 -0.13809831D-01
 -0.40379137D-01 -0.48658824D-01  0.58614710D-01  0.41154830D-01 -0.32513843D-01
 -0.73581433D-02  0.68215347D-01  0.66145940D-01  0.44621660D-01 -0.15847173D+00
 -0.15366428D+00 -0.10366101D+00 -0.14826868D+01 -0.14377074D+01 -0.96986894D+00
  0.16555119D-01 -0.30523606D-01 -0.32191665D+00  0.40298437D-02 -0.18500296D-02
 -0.37886148D-01  0.16666097D-03 -0.20675748D-04 -0.77398866D-03 -0.45818937D-01
  0.78920667D-02  0.37926870D-01  0.12005597D-02  0.67350726D-02  0.15196033D-01
 -0.63055626D-02 -0.50849849D-02  0.11390548D-01  0.62585905D-04  0.10874506D-02
  0.79214107D-03  0.86673454D-03 -0.14820519D-02  0.61531741D-03 -0.40767368D-04
 -0.18001370D-03 -0.40776126D-03  0.45692817D-03 -0.79643064D-03 -0.45316133D-03
  0.10956466D-02  0.10894849D-02  0.18521615D-01 -0.24664311D-02  0.12998070D-02
 -0.17162131D-01 -0.20868565D-03 -0.33518182D-04 -0.53261470D-04 -0.70567695D-03
  0.23088492D-03 -0.87886441D-04 -0.29320294D-05 -0.13033037D-03  0.24767085D-03
  0.21199629D-02  0.24353325D-04  0.34856257D-01  0.62864696D-01  0.92693957D-01
  0.64338581D-01  0.81179439D-02  0.71497014D-04  0.36020506D-02  0.34981851D-01
  0.58523991D-02  0.16769063D-02  0.13311931D-01  0.21072061D-03  0.14435122D-03
  0.62657252D-05 -0.11333513D-02 -0.49246149D-02  0.86380888D-02 -0.37134739D-02
  0.25422387D-02  0.12947683D-02  0.10708121D-01  0.69175341D-05  0.13906388D-03
 -0.14598142D-03  0.94316116D-04  0.66745581D-04 -0.76380350D-03  0.27615836D-01
  0.49806298D-01  0.73439357D-01  0.49952720D-01  0.71001711D-02  0.96269746D-04
  0.28352004D-02 -0.27650423D-01  0.15741915D-02  0.14078077D-02 -0.11379163D-01
 -0.80816325D-03  0.13791228D-03 -0.16612057D-03 -0.10739473D-02 -0.32696925D-02
  0.67340965D-02 -0.34644040D-02 -0.19102780D-02  0.98316733D-03 -0.66889421D-02
 -0.10305184D-03  0.24298093D-03 -0.13992909D-03 -0.94763852D-04  0.87430725D-04
  0.55049893D-03
MO    2     MO 0.0        OCC NO =    2.0000000  ORB. ENERGY =    0.000000
  0.11198295D+00  0.20871780D+00  0.35391036D+00  0.53560569D+00  0.66812588D+00
  0.57335141D+00  0.21956313D+00 -0.23211985D-03 -0.24904937D-02 -0.91804287D-02
 -0.26843035D-01 -0.32347163D-01  0.38965585D-01  0.36610734D-01  0.17121333D-01
  0.14051728D-02  0.47398276D+00  0.45960384D+00  0.31004603D+00  0.13573491D+01
  0.13161721D+01  0.88788190D+00  0.26206101D-02  0.25411103D-02  0.17142180D-02
  0.10671035D+00  0.27714294D+00 -0.16334062D-02  0.17345096D-01  0.24101946D-01
 -0.63835772D-03  0.54936358D-03  0.20987204D-03 -0.25097156D-04 -0.30998858D-02
  0.14104366D-03  0.29588422D-02 -0.12268796D-01 -0.18872898D-01 -0.12521180D+00
 -0.12944541D-02  0.98081765D-03  0.31363640D-03 -0.13385207D-02 -0.46616721D-02
 -0.14717653D-01 -0.18409485D-03  0.19125139D-03 -0.71565445D-05  0.15071414D-03
 -0.27575885D-03  0.14181743D-02 -0.27258712D-02  0.65422362D-02  0.54251403D-03
  0.59816522D-02 -0.12938957D-01  0.20035169D-02  0.21959614D-02 -0.66877518D-02
 -0.36310590D-02  0.10185606D-02 -0.68797767D-04  0.12687642D-03 -0.54164988D-05
  0.90894151D-04 -0.63806285D-03  0.13729981D-03  0.11549915D-03  0.25743360D-03
 -0.12105032D-03  0.46197611D-04 -0.34204699D-01 -0.61689584D-01 -0.90961255D-01
 -0.68689587D-01 -0.86703784D-02  0.75405407D-04  0.46136587D-02 -0.21993260D-01
 -0.25512711D-01  0.28191573D-02 -0.89275872D-02 -0.10506987D-01  0.55767999D-03
  0.15011000D-03 -0.18378024D-03  0.74919656D-02 -0.53239729D-02 -0.21679927D-02
  0.15154066D-02  0.63825978D-03 -0.21611924D-01 -0.15014302D-05  0.15576869D-03
 -0.15426726D-03  0.34221146D-03  0.19676550D-03 -0.41035872D-03  0.36505054D-01
  0.65838368D-01  0.97078635D-01  0.64228333D-01  0.70425294D-02 -0.11599687D-03
  0.88605278D-02 -0.21788105D-01  0.27323115D-01  0.44360785D-02 -0.69693913D-02
  0.10308086D-01  0.56398239D-03  0.23734283D-03  0.17901916D-03 -0.64155054D-02
  0.33819093D-02  0.30335961D-02 -0.49173225D-02  0.40676939D-02 -0.19824165D-01
 -0.24642831D-05 -0.15104975D-03  0.15351403D-03 -0.39136592D-03  0.24237250D-03
 -0.55598088D-03
MO    3     MO 0.0        OCC NO =    2.0000000  ORB. ENERGY =    0.000000
  0.47283195D+00  0.88128102D+00  0.14943358D+01  0.22615183D+01  0.28210659D+01
  0.24208942D+01  0.92707388D+00  0.41844806D-03  0.44896731D-02  0.16549780D-01
  0.48390587D-01  0.58313010D-01 -0.70244200D-01  0.12648356D-01 -0.12449128D-01
 -0.18091273D-03  0.38396280D+00  0.37231476D+00  0.25116134D+00 -0.40734540D+00
 -0.39498801D+00 -0.26645658D+00  0.11304721D+00  0.10961777D+00  0.73947498D-01
  0.86714141D-01 -0.84416576D-01  0.25721857D-01  0.13970823D-01 -0.77780049D-02
  0.17520763D-02  0.44114995D-03 -0.75829363D-04  0.16483807D-04  0.48174207D-02
 -0.17340374D-02 -0.30833833D-02  0.25018868D-02 -0.16950285D-01  0.38369044D-01
  0.14706408D-02 -0.57832689D-03 -0.89231390D-03  0.41443313D-03 -0.43280966D-02
  0.51133398D-02 -0.62168689D-04  0.93984853D-04 -0.31816164D-04 -0.99927648D-05
 -0.24442179D-03 -0.31863565D-03 -0.23527273D-02 -0.20345316D-02 -0.47705848D-04
  0.49710387D-02  0.44289347D-02 -0.83231121D-03  0.20871432D-02  0.16746602D-02
  0.97542875D-03 -0.54409514D-03 -0.87196705D-04 -0.18234693D-04 -0.36262488D-04
  0.10975548D-03  0.20399347D-03 -0.27013038D-03  0.15183463D-03 -0.14928939D-03
  0.37891785D-03 -0.15034787D-03  0.35493783D-02  0.64014499D-02  0.94389341D-02
  0.10182404D-01  0.17838448D-02 -0.26548486D-04  0.58303946D-02 -0.18725102D-02
  0.31630854D-02  0.31692963D-02 -0.16591813D-03  0.16696711D-02  0.46377305D-03
 -0.74079252D-04  0.67646458D-04  0.22234896D-03 -0.10250973D-02  0.80274839D-03
  0.28243314D-02  0.20543832D-02  0.23169922D-03  0.28191757D-04 -0.63166491D-04
  0.34974734D-04  0.31267740D-03  0.18165226D-03  0.12925594D-03 -0.17525523D-01
 -0.31608003D-01 -0.46605981D-01 -0.28459282D-01 -0.26767968D-02  0.41960815D-04
  0.41219091D-02  0.13532020D-01 -0.12261820D-01  0.24510276D-02  0.42075846D-02
 -0.43044418D-02  0.43528019D-03 -0.96585575D-04 -0.15909973D-04  0.39193611D-02
 -0.28823644D-02 -0.10369967D-02 -0.16097740D-02  0.10772289D-02  0.11074452D-01
  0.28227736D-04  0.43654233D-04 -0.71881969D-04 -0.25783585D-03  0.15482509D-03
  0.15992522D-03
MO    4     MO 0.0        OCC NO =    2.0000000  ORB. ENERGY =    0.000000
 -0.14550265D+00 -0.27119302D+00 -0.45984588D+00 -0.69592784D+00 -0.86811512D+00
 -0.74497193D+00 -0.28528467D+00 -0.27190312D-03 -0.29173420D-02 -0.10753872D-01
 -0.31443691D-01 -0.37891177D-01  0.45643938D-01  0.11063020D-01  0.19125938D-01
  0.20568103D-02  0.16630324D+01  0.16125821D+01  0.10878383D+01 -0.31566631D+00
 -0.30609013D+00 -0.20648660D+00  0.95182186D-01  0.92294703D-01  0.62261461D-01
  0.37521194D+00 -0.64364311D-01  0.19095231D-01  0.61222108D-01 -0.56302872D-02
  0.18316341D-02  0.19389744D-02 -0.50571014D-04 -0.28299974D-04 -0.24053301D-02
  0.33686767D-02 -0.96334657D-03 -0.12855748D-02 -0.68692897D-01  0.28971691D-01
 -0.14235956D-02  0.17046512D-02 -0.28105556D-03  0.17155138D-03 -0.17078098D-01
  0.32025290D-02 -0.19392233D-03  0.18536569D-03  0.85566452D-05  0.49676507D-04
 -0.10633907D-02 -0.33489216D-03 -0.99424522D-02 -0.15790531D-02 -0.45718916D-03
  0.21687052D-01  0.30854830D-02  0.17290695D-02  0.81403048D-02  0.16516762D-02
 -0.35750205D-03 -0.53123466D-03 -0.26212034D-03 -0.26212859D-04  0.24210307D-04
  0.31685765D-03  0.11118497D-03  0.18993595D-03  0.46950336D-03 -0.32546391D-04
 -0.26256687D-03 -0.42857035D-03  0.71528205D-02  0.12900406D-01  0.19021642D-01
  0.97156749D-02  0.13774162D-03 -0.49590302D-04  0.25162755D-01  0.47591275D-02
  0.71314848D-02  0.13519707D-01  0.44997875D-03  0.20804867D-02  0.20250575D-02
 -0.12811913D-03  0.45637464D-04 -0.99016531D-03  0.49004029D-03  0.50012501D-03
  0.12855355D-01  0.88863795D-02  0.49278878D-02  0.10398301D-03 -0.10013119D-03
 -0.38518201D-05  0.13361942D-02  0.77545176D-03  0.65022607D-04 -0.94434493D-02
 -0.17031650D-01 -0.25113157D-01 -0.21346089D-01 -0.36550319D-02 -0.89242975D-05
  0.22390291D-01  0.55230040D-02 -0.53434305D-02  0.12209918D-01  0.33194943D-02
 -0.29149371D-02  0.19240156D-02  0.61470306D-04 -0.55001769D-04  0.22726363D-02
 -0.15607500D-02 -0.71188629D-03 -0.10869009D-01  0.80251899D-02  0.50049782D-02
  0.10783262D-03 -0.36693986D-04 -0.71138632D-04 -0.11855754D-02  0.72919373D-03
  0.18654455D-03
MO    5     MO 0.0        OCC NO =    2.0000000  ORB. ENERGY =    0.000000
 -0.71947031D-02 -0.13409744D-01 -0.22738105D-01 -0.34411704D-01 -0.42925888D-01
 -0.36836798D-01 -0.14106537D-01 -0.16095182D-02 -0.17269075D-01 -0.63657060D-01
 -0.18612951D+00 -0.22429511D+00  0.27018723D+00  0.16534517D+00  0.97084385D-01
  0.85745696D-02 -0.23661306D+00 -0.22943508D+00 -0.15477555D+00 -0.20507614D+00
 -0.19885487D+00 -0.13414632D+00  0.64410455D+00  0.62456475D+00  0.42132769D+00
 -0.54113363D-01 -0.41020668D-01  0.13737119D+00 -0.89141632D-02 -0.32067300D-02
  0.21550447D-01 -0.30551791D-03 -0.22883224D-04  0.43474195D-03 -0.37039997D-02
  0.22344623D-01 -0.18640624D-01  0.25276690D-02  0.96105636D-02  0.18849328D-01
 -0.25175856D-02  0.69572138D-02 -0.44396282D-02  0.18436409D-03  0.27236412D-02
  0.11817421D-02 -0.23809639D-03  0.45807504D-03 -0.21997865D-03 -0.34730204D-04
  0.19725051D-03 -0.28104899D-03  0.15833675D-02 -0.11612694D-02  0.26209924D-02
 -0.43721670D-02  0.18691879D-02 -0.23221141D-02 -0.37793541D-03  0.16146203D-02
 -0.55408630D-02 -0.18337194D-04  0.41926053D-04  0.20833857D-05 -0.12315093D-03
 -0.19829159D-04  0.97880959D-05 -0.86574647D-04 -0.10594900D-03 -0.16038253D-04
  0.45602743D-03  0.69497898D-04  0.14009490D-01  0.25266693D-01  0.37255724D-01
  0.19587207D-02 -0.52592209D-02 -0.14404877D-03 -0.23535258D-02  0.13686178D-01
  0.21868920D-01 -0.19214454D-02 -0.25805866D-02  0.50412323D-02 -0.31875275D-03
 -0.53527869D-03  0.46183819D-03 -0.19033203D-02 -0.90800165D-03  0.28113219D-02
 -0.14528265D-02 -0.65208385D-03  0.82980918D-02  0.14005579D-03 -0.27615290D-03
  0.13609711D-03 -0.22526332D-03 -0.14118527D-03  0.14898474D-03  0.16883015D-02
  0.30449213D-02  0.44897347D-02 -0.19728801D-01 -0.78981119D-02 -0.11647302D-03
 -0.29539457D-02 -0.49325267D-02  0.12456036D-01 -0.20743081D-02  0.53827368D-02
  0.13364915D-02 -0.30881412D-03  0.52752122D-03  0.35434848D-03  0.57959276D-03
 -0.26750129D-02  0.20954202D-02  0.19459753D-02 -0.12439159D-02 -0.42010036D-03
  0.15246699D-03 -0.25028138D-03  0.97814391D-04  0.21532376D-03 -0.14460942D-03
  0.52145470D-04
END DATA
 TOTAL ENERGY =    -76.465323294674 THE VIRIAL(-V/T)=   2.00529630
