 50
GAUSSIAN              5 MOL ORBITALS    126 PRIMITIVES        3 NUCLEI   B3LYP   B3LYP   B3LYP
  O    1    (CENTRE  1)  -0.09448631  0.00000000  0.00815606  CHARGE =  8.0
  H    2    (CENTRE  2)   0.00000000 -1.44255835 -1.00281530  CHARGE =  1.0
  H    3    (CENTRE  3)   0.00000000  1.44255835 -1.09730160  CHARGE =  1.0
CENTRE ASSIGNMENTS    1  1  1  1  1  1  1  1  1  1  1  1  1  1  1  1  1  1  1  1
CENTRE ASSIGNMENTS    1  1  1  1  1  1  1  1  1  1  1  1  1  1  1  1  1  1  1  1
CENTRE ASSIGNMENTS    1  1  1  1  1  1  1  1  1  1  1  1  1  1  1  1  1  1  1  1
CENTRE ASSIGNMENTS    1  1  1  1  1  1  1  1  1  1  1  1  2  2  2  2  2  2  2  2
CENTRE ASSIGNMENTS    2  2  2  2  2  2  2  2  2  2  2  2  2  2  2  2  2  2  2  3
CENTRE ASSIGNMENTS    3  3  3  3  3  3  3  3  3  3  3  3  3  3  3  3  3  3  3  3
CENTRE ASSIGNMENTS    3  3  3  3  3  3
TYPE ASSIGNMENTS      1  1  1  1  1  1  1  1  1  1  1  1  1  1  1  1  2  2  2  3
TYPE ASSIGNMENTS      3  3  4  4  4  2  3  4  2  3  4  2  3  4  5  6  7  8  9 10
TYPE ASSIGNMENTS      5  6  7  8  9 10  5  6  7  8  9 10 11 12 13 17 14 15 18 19
TYPE ASSIGNMENTS     16 20 11 12 13 17 14 15 18 19 16 20  1  1  1  1  1  1  2  3
TYPE ASSIGNMENTS      4  2  3  4  2  3  4  5  6  7  8  9 10  5  6  7  8  9 10  1
TYPE ASSIGNMENTS      1  1  1  1  1  2  3  4  2  3  4  2  3  4  5  6  7  8  9 10
TYPE ASSIGNMENTS      5  6  7  8  9 10
EXPONENTS  0.1533000D+05 0.2299000D+04 0.5224000D+03 0.1473000D+03 0.4755000D+02
EXPONENTS  0.1676000D+02 0.6207000D+01 0.5224000D+03 0.1473000D+03 0.4755000D+02
EXPONENTS  0.1676000D+02 0.6207000D+01 0.6882000D+00 0.1752000D+01 0.2384000D+00
EXPONENTS  0.7376000D-01 0.3446000D+02 0.7749000D+01 0.2280000D+01 0.3446000D+02
EXPONENTS  0.7749000D+01 0.2280000D+01 0.3446000D+02 0.7749000D+01 0.2280000D+01
EXPONENTS  0.7156000D+00 0.7156000D+00 0.7156000D+00 0.2140000D+00 0.2140000D+00
EXPONENTS  0.2140000D+00 0.5974000D-01 0.5974000D-01 0.5974000D-01 0.2314000D+01
EXPONENTS  0.2314000D+01 0.2314000D+01 0.2314000D+01 0.2314000D+01 0.2314000D+01
EXPONENTS  0.6450000D+00 0.6450000D+00 0.6450000D+00 0.6450000D+00 0.6450000D+00
EXPONENTS  0.6450000D+00 0.2140000D+00 0.2140000D+00 0.2140000D+00 0.2140000D+00
EXPONENTS  0.2140000D+00 0.2140000D+00 0.1428000D+01 0.1428000D+01 0.1428000D+01
EXPONENTS  0.1428000D+01 0.1428000D+01 0.1428000D+01 0.1428000D+01 0.1428000D+01
EXPONENTS  0.1428000D+01 0.1428000D+01 0.5000000D+00 0.5000000D+00 0.5000000D+00
EXPONENTS  0.5000000D+00 0.5000000D+00 0.5000000D+00 0.5000000D+00 0.5000000D+00
EXPONENTS  0.5000000D+00 0.5000000D+00 0.3387000D+02 0.5095000D+01 0.1159000D+01
EXPONENTS  0.3258000D+00 0.1027000D+00 0.2526000D-01 0.1407000D+01 0.1407000D+01
EXPONENTS  0.1407000D+01 0.3880000D+00 0.3880000D+00 0.3880000D+00 0.1020000D+00
EXPONENTS  0.1020000D+00 0.1020000D+00 0.1057000D+01 0.1057000D+01 0.1057000D+01
EXPONENTS  0.1057000D+01 0.1057000D+01 0.1057000D+01 0.2470000D+00 0.2470000D+00
EXPONENTS  0.2470000D+00 0.2470000D+00 0.2470000D+00 0.2470000D+00 0.3387000D+02
EXPONENTS  0.5095000D+01 0.1159000D+01 0.3258000D+00 0.1027000D+00 0.2526000D-01
EXPONENTS  0.1407000D+01 0.1407000D+01 0.1407000D+01 0.3880000D+00 0.3880000D+00
EXPONENTS  0.3880000D+00 0.1020000D+00 0.1020000D+00 0.1020000D+00 0.1057000D+01
EXPONENTS  0.1057000D+01 0.1057000D+01 0.1057000D+01 0.1057000D+01 0.1057000D+01
EXPONENTS  0.2470000D+00 0.2470000D+00 0.2470000D+00 0.2470000D+00 0.2470000D+00
EXPONENTS  0.2470000D+00
MO    1     MO 0.0        OCC NO =    2.0000000  ORB. ENERGY =    0.000000
  0.21427286D-02  0.39936937D-02  0.67718689D-02  0.10248503D-01  0.12784200D-01
  0.10970746D-01  0.42012128D-02  0.13561129D-03  0.14550201D-02  0.53634782D-02
  0.15682496D-01  0.18898170D-01 -0.22764848D-01 -0.13999772D-01  0.38035175D-01
  0.70378379D-02 -0.12063577D+00 -0.11697611D+00 -0.78911395D-01  0.88134150D+00
  0.85460479D+00  0.57651134D+00  0.12556832D+01  0.12175903D+01  0.82137923D+00
 -0.26096716D-01  0.17847576D+00  0.27141311D+00 -0.31073918D-02  0.14869730D-01
  0.31861362D-01 -0.65158858D-04  0.13387908D-03  0.64739961D-03  0.36870335D-01
 -0.62895589D-02 -0.30580776D-01  0.75756624D-02  0.12632668D-01 -0.81827160D-01
  0.45760561D-02  0.48985284D-02 -0.94745844D-02  0.78662439D-03  0.26175058D-02
 -0.88175077D-02 -0.82492201D-03  0.13507913D-02 -0.52586932D-03 -0.11292482D-03
 -0.53285829D-04  0.11192970D-02  0.13898904D-02  0.42784504D-02  0.72461578D-03
 -0.12765944D-02 -0.80770021D-02 -0.14641366D-01 -0.28930768D-02 -0.47583490D-02
  0.12467518D-01 -0.76034463D-03 -0.48152537D-05  0.11407511D-03  0.59322478D-03
  0.16247719D-03 -0.27776734D-03  0.82313455D-04 -0.14803143D-03 -0.64457979D-04
 -0.18619878D-02 -0.25502196D-04 -0.47809110D-01 -0.86225699D-01 -0.12713974D+00
 -0.91618190D-01 -0.11633941D-01 -0.19679922D-04  0.16877573D-02 -0.41092613D-01
 -0.18541151D-01  0.51914789D-03 -0.16032542D-01 -0.58261613D-02 -0.84497608D-04
  0.74290946D-04  0.86265761D-03  0.81279710D-02 -0.10102264D-01  0.19742925D-02
  0.18977919D-02  0.11379702D-02 -0.20555749D-01 -0.92074687D-05 -0.32687511D-04
  0.41894980D-04 -0.42321289D-04 -0.13272711D-04  0.42177023D-03 -0.27812279D-02
 -0.50160591D-02 -0.73961761D-02 -0.63536819D-02 -0.21348097D-02 -0.14648707D-03
 -0.13754142D-02  0.10891853D-01  0.14130020D-01 -0.63996660D-03  0.56867716D-02
  0.64784335D-02 -0.97924579D-04  0.27704306D-03  0.10106025D-02 -0.89944802D-03
 -0.37436339D-02  0.46430819D-02  0.55573241D-03 -0.10118806D-02 -0.55843757D-02
  0.83331973D-04 -0.29030755D-03  0.20697557D-03  0.75494593D-04 -0.22688289D-04
 -0.77342652D-03
MO    2     MO 0.0        OCC NO =    2.0000000  ORB. ENERGY =    0.000000
  0.16394303D-02  0.30556285D-02  0.51812476D-02  0.78412672D-02  0.97813628D-02
  0.83938645D-02  0.32144042D-02 -0.31601989D-03 -0.33906860D-02 -0.12498707D-01
 -0.36545487D-01 -0.44039088D-01  0.53049749D-01  0.32297700D-01 -0.10003766D-01
 -0.35856816D-02 -0.16703799D+00 -0.16197067D+00 -0.10926445D+00  0.11615872D+01
  0.11263488D+01  0.75982826D+00 -0.86361869D+00 -0.83741962D+00 -0.56491833D+00
 -0.38148487D-01  0.23837733D+00 -0.18921789D+00 -0.69174258D-02  0.21238499D-01
 -0.22699751D-01 -0.24172900D-03  0.18444731D-03 -0.46123656D-03 -0.27060924D-01
  0.24596831D-02  0.24601241D-01  0.99502810D-02  0.10585867D-02 -0.10704334D+00
 -0.43556641D-02 -0.24647575D-02  0.68204216D-02  0.11821996D-02  0.54221975D-03
 -0.13152658D-01  0.35971409D-03 -0.70045119D-03  0.34073710D-03 -0.10010025D-03
  0.16009978D-03  0.10652397D-02  0.46121776D-03  0.56210075D-02  0.35400122D-04
 -0.22441692D-02 -0.11437835D-01  0.11490014D-01  0.86051589D-03 -0.54251876D-02
 -0.11596215D-01 -0.90632045D-03  0.26731191D-04  0.81157728D-04 -0.35398552D-03
 -0.13382190D-03 -0.62286615D-03  0.16874738D-03  0.53628331D-04  0.37939297D-03
  0.89320917D-03 -0.12654001D-03 -0.12085946D-01 -0.21797501D-01 -0.32140403D-01
 -0.25356306D-01 -0.27615527D-02  0.12176731D-03 -0.17077266D-02 -0.53318942D-03
 -0.20781434D-01 -0.11011996D-02 -0.20925742D-05 -0.93808271D-02 -0.22329132D-03
  0.20115694D-03 -0.79861725D-03  0.36356245D-02  0.53415156D-03 -0.41697761D-02
 -0.62620499D-03  0.19252205D-03 -0.12984271D-01 -0.27299740D-04  0.24722666D-03
 -0.21992692D-03 -0.12570846D-03 -0.78567974D-04 -0.77960608D-03  0.49068847D-01
  0.88497685D-01  0.13048979D+00  0.88799409D-01  0.11078570D-01 -0.43218974D-04
 -0.54909652D-02 -0.35575008D-01  0.25442729D-01 -0.25904916D-02 -0.13409037D-01
  0.91568756D-02 -0.24180280D-03  0.78618818D-04 -0.43585147D-03 -0.81579219D-02
  0.73620132D-02  0.79590867D-03  0.35841738D-02 -0.27872250D-02 -0.22767228D-01
 -0.86749848D-04  0.18693584D-04  0.68056264D-04  0.19407253D-03 -0.13789439D-03
 -0.22422023D-03
MO    3     MO 0.0        OCC NO =    2.0000000  ORB. ENERGY =    0.000000
 -0.12307013D+00 -0.22938248D+00 -0.38895023D+00 -0.58863481D+00 -0.73427553D+00
 -0.63011765D+00 -0.24130158D+00 -0.37940632D-04 -0.40707808D-03 -0.15005665D-02
 -0.43875683D-02 -0.52872332D-02  0.63690326D-02 -0.10643912D-01 -0.29288528D-02
 -0.66733075D-03  0.17211808D+01  0.16689664D+01  0.11258749D+01  0.17099743D+00
  0.16580998D+00  0.11185443D+00  0.27109954D-01  0.26287536D-01  0.17733417D-01
  0.38847069D+00  0.35369791D-01  0.69053422D-02  0.63388560D-01  0.32845960D-02
  0.23448007D-02  0.20117982D-02  0.34469209D-04  0.11492510D-03  0.32817560D-02
 -0.60060902D-03 -0.26811470D-02 -0.26110352D-02 -0.70780696D-01 -0.16063666D-01
  0.10028286D-02 -0.39932363D-03 -0.60350499D-03  0.50548797D-04 -0.17715170D-01
 -0.20218449D-02  0.15057008D-03 -0.96877851D-04 -0.53692229D-04  0.69166644D-04
 -0.11080636D-02  0.14382866D-03 -0.10249993D-01  0.89293980D-03  0.57070174D-03
  0.22519071D-01 -0.19282043D-02 -0.29950511D-02  0.82309067D-02 -0.75061506D-03
  0.12829459D-02 -0.50900734D-03 -0.28449638D-03  0.85327044D-05  0.35008107D-04
  0.35789862D-03 -0.51146470D-04 -0.72132711D-04  0.49559052D-03  0.25548357D-04
 -0.32891610D-04 -0.43062243D-03 -0.18266453D-02 -0.32944300D-02 -0.48576352D-02
 -0.31250155D-02 -0.20090569D-03  0.20987494D-04  0.25590168D-01  0.18150923D-03
 -0.69669763D-03  0.13878764D-01  0.37924340D-03  0.62810091D-04  0.20971236D-02
  0.63480560D-04  0.88164078D-04 -0.63874464D-03  0.47782571D-03  0.16091893D-03
  0.12899504D-01  0.88157557D-02  0.16783206D-03 -0.89188571D-04  0.47816614D-04
  0.41371957D-04  0.13828320D-02  0.80401452D-03  0.35552284D-04  0.69233157D-02
  0.12486485D-01  0.18411315D-01  0.12941694D-01  0.16972391D-02 -0.52934460D-05
  0.23308471D-01 -0.50517043D-02  0.56568101D-02  0.12756352D-01 -0.20727576D-02
  0.25410776D-02  0.19976354D-02  0.32460605D-05  0.12408396D-03 -0.21602725D-02
  0.12651258D-02  0.89514670D-03 -0.11343393D-01  0.83665770D-02 -0.49102751D-02
 -0.83539321D-04  0.24581753D-05  0.81081146D-04 -0.12381157D-02  0.76323063D-03
 -0.15216908D-03
MO    4     MO 0.0        OCC NO =    2.0000000  ORB. ENERGY =    0.000000
  0.38993986D+00  0.72678379D+00  0.12323640D+01  0.18650519D+01  0.23265053D+01
  0.19964877D+01  0.76454871D+00  0.13386504D-02  0.14362840D-01  0.52944133D-01
  0.15480554D+00  0.18654820D+00 -0.22471708D+00 -0.92292105D-01 -0.74353094D-01
 -0.62256169D-02  0.30418648D+00  0.29495856D+00  0.19897730D+00  0.11119753D+00
  0.10782420D+00  0.72737568D-01 -0.38534902D+00 -0.37365892D+00 -0.25206810D+00
  0.68132295D-01  0.21370960D-01 -0.80892642D-01  0.11162304D-01  0.13851716D-02
 -0.13454149D-01  0.33964163D-03  0.43076375D-05 -0.25596206D-03  0.52942174D-02
 -0.15935958D-01  0.10641741D-01  0.34588128D-03 -0.12196539D-01 -0.96193043D-02
  0.28802269D-02 -0.53467522D-02  0.24665253D-02  0.30112313D-04 -0.27470660D-02
 -0.40992325D-04  0.19024792D-03 -0.30961819D-03  0.11937028D-03 -0.44642347D-05
 -0.16720841D-03  0.22409747D-03 -0.17056993D-02  0.61841720D-03 -0.13690171D-02
  0.32283661D-02 -0.69250567D-03  0.62074117D-03  0.18887319D-02 -0.11627459D-02
  0.34863100D-02  0.25279100D-04 -0.27712295D-04  0.83805229D-05  0.25266026D-04
  0.44819642D-04  0.21508022D-04 -0.19788283D-03  0.38317243D-04 -0.46649590D-04
  0.12208476D-03 -0.54911477D-04 -0.11571160D-01 -0.20869063D-01 -0.30771421D-01
 -0.35000970D-02  0.36885021D-02  0.99408429D-04  0.54985743D-02 -0.12808892D-01
 -0.16370909D-01  0.25100768D-02  0.73603335D-03 -0.37735930D-02  0.35490029D-03
  0.34414266D-03 -0.29246256D-03  0.22847418D-02 -0.63392512D-03 -0.16508167D-02
  0.28184515D-02  0.21380572D-02 -0.87017025D-02 -0.11222684D-03  0.18578716D-03
 -0.73560323D-04  0.22304280D-03  0.12293739D-03 -0.84463550D-04 -0.46083477D-02
 -0.83113448D-02 -0.12255073D-01  0.92640811D-02  0.53804086D-02  0.93561251D-04
  0.46703061D-02  0.69616656D-02 -0.10776955D-01  0.21711205D-02 -0.27887235D-02
 -0.14554522D-02  0.33414352D-03 -0.39139630D-03 -0.20513358D-03  0.59058321D-03
  0.84125377D-03 -0.14318370D-02 -0.21514251D-02  0.17484597D-02  0.34434608D-02
 -0.12364636D-03  0.18753741D-03 -0.63891052D-04 -0.19364344D-03  0.11351367D-03
 -0.46840513D-04
MO    5     MO 0.0        OCC NO =    2.0000000  ORB. ENERGY =    0.000000
  0.30339413D+00  0.56547678D+00  0.95884534D+00  0.14511105D+01  0.18101459D+01
  0.15533745D+01  0.59485991D+00 -0.10505691D-02 -0.11271917D-01 -0.41550409D-01
 -0.12149096D+00 -0.14640251D+00  0.17635734D+00  0.14417074D+00  0.64905620D-01
  0.56843042D-02  0.31773505D+00  0.30809612D+00  0.20783982D+00 -0.86539262D-01
 -0.83913974D-01 -0.56607871D-01  0.40406757D+00  0.39180962D+00  0.26431245D+00
  0.72145210D-01 -0.17505125D-01  0.86430854D-01  0.11818273D-01 -0.13845562D-02
  0.13772320D-01  0.38959635D-03 -0.12402324D-04  0.28137469D-03 -0.46025208D-02
  0.16613777D-01 -0.12011256D-01 -0.17117388D-02 -0.13437605D-01  0.84391977D-02
 -0.16582843D-02  0.44321967D-02 -0.27739124D-02 -0.10437327D-03 -0.34938301D-02
  0.45314736D-03 -0.12051643D-03  0.25605383D-03 -0.13553740D-03  0.23968708D-04
 -0.23165171D-03 -0.10811996D-03 -0.21018125D-02 -0.57947018D-03  0.22032580D-02
  0.51902786D-02  0.98668206D-03 -0.62711208D-03  0.11151590D-02  0.75172849D-03
 -0.59826621D-02  0.18254414D-04 -0.38481525D-04  0.14684065D-04 -0.18971355D-03
  0.67988529D-06 -0.26906822D-04 -0.23619730D-03  0.11476469D-03 -0.17145374D-04
  0.80533794D-03 -0.93384193D-04  0.87142071D-02  0.15716431D-01  0.23173869D-01
 -0.87930177D-03 -0.39136657D-02 -0.95785062D-04  0.40126748D-02  0.82409111D-02
  0.13421161D-01  0.26221763D-02 -0.24638906D-02  0.26044957D-02  0.41050027D-03
 -0.40317562D-03  0.25087578D-03 -0.35235789D-03 -0.14510242D-02  0.18033821D-02
  0.24026077D-02  0.14409599D-02  0.28385376D-02  0.99465857D-04 -0.18677940D-03
  0.87313542D-04  0.28348515D-03  0.17183090D-03  0.29115885D-04  0.31257512D-02
  0.56374211D-02  0.83123741D-02 -0.98157936D-02 -0.48777833D-02 -0.77597588D-04
  0.40557757D-02 -0.43609837D-02  0.93784783D-02  0.25484569D-02  0.33969812D-02
  0.11520222D-02  0.39180330D-03  0.37306607D-03  0.21328688D-03  0.57925082D-03
 -0.20402796D-02  0.14610288D-02 -0.24261974D-02  0.16658105D-02  0.33024421D-03
  0.97773306D-04 -0.16716585D-03  0.69392546D-04 -0.25843427D-03  0.16750754D-03
  0.38015198D-04
END DATA
 TOTAL ENERGY =    -76.465323294674 THE VIRIAL(-V/T)=   2.00529630
