 50
GAUSSIAN              5 MOL ORBITALS    126 PRIMITIVES        3 NUCLEI   B3LYP   B3LYP   B3LYP
  O    1    (CENTRE  1)   0.09448631  0.00000000  0.00815606  CHARGE =  8.0
  H    2    (CENTRE  2)   0.00000000 -1.44255835 -1.19178791  CHARGE =  1.0
  H    3    (CENTRE  3)   0.00000000  1.44255835 -1.09730160  CHARGE =  1.0
CENTRE ASSIGNMENTS    1  1  1  1  1  1  1  1  1  1  1  1  1  1  1  1  1  1  1  1
CENTRE ASSIGNMENTS    1  1  1  1  1  1  1  1  1  1  1  1  1  1  1  1  1  1  1  1
CENTRE ASSIGNMENTS    1  1  1  1  1  1  1  1  1  1  1  1  1  1  1  1  1  1  1  1
CENTRE ASSIGNMENTS    1  1  1  1  1  1  1  1  1  1  1  1  2  2  2  2  2  2  2  2
CENTRE ASSIGNMENTS    2  2  2  2  2  2  2  2  2  2  2  2  2  2  2  2  2  2  2  3
CENTRE ASSIGNMENTS    3  3  3  3  3  3  3  3  3  3  3  3  3  3  3  3  3  3  3  3
CENTRE ASSIGNMENTS    3  3  3  3  3  3
TYPE ASSIGNMENTS      1  1  1  1  1  1  1  1  1  1  1  1  1  1  1  1  2  2  2  3
TYPE ASSIGNMENTS      3  3  4  4  4  2  3  4  2  3  4  2  3  4  5  6  7  8  9 10
TYPE ASSIGNMENTS      5  6  7  8  9 10  5  6  7  8  9 10 11 12 13 17 14 15 18 19
TYPE ASSIGNMENTS     16 20 11 12 13 17 14 15 18 19 16 20  1  1  1  1  1  1  2  3
TYPE ASSIGNMENTS      4  2  3  4  2  3  4  5  6  7  8  9 10  5  6  7  8  9 10  1
TYPE ASSIGNMENTS      1  1  1  1  1  2  3  4  2  3  4  2  3  4  5  6  7  8  9 10
TYPE ASSIGNMENTS      5  6  7  8  9 10
EXPONENTS  0.1533000D+05 0.2299000D+04 0.5224000D+03 0.1473000D+03 0.4755000D+02
EXPONENTS  0.1676000D+02 0.6207000D+01 0.5224000D+03 0.1473000D+03 0.4755000D+02
EXPONENTS  0.1676000D+02 0.6207000D+01 0.6882000D+00 0.1752000D+01 0.2384000D+00
EXPONENTS  0.7376000D-01 0.3446000D+02 0.7749000D+01 0.2280000D+01 0.3446000D+02
EXPONENTS  0.7749000D+01 0.2280000D+01 0.3446000D+02 0.7749000D+01 0.2280000D+01
EXPONENTS  0.7156000D+00 0.7156000D+00 0.7156000D+00 0.2140000D+00 0.2140000D+00
EXPONENTS  0.2140000D+00 0.5974000D-01 0.5974000D-01 0.5974000D-01 0.2314000D+01
EXPONENTS  0.2314000D+01 0.2314000D+01 0.2314000D+01 0.2314000D+01 0.2314000D+01
EXPONENTS  0.6450000D+00 0.6450000D+00 0.6450000D+00 0.6450000D+00 0.6450000D+00
EXPONENTS  0.6450000D+00 0.2140000D+00 0.2140000D+00 0.2140000D+00 0.2140000D+00
EXPONENTS  0.2140000D+00 0.2140000D+00 0.1428000D+01 0.1428000D+01 0.1428000D+01
EXPONENTS  0.1428000D+01 0.1428000D+01 0.1428000D+01 0.1428000D+01 0.1428000D+01
EXPONENTS  0.1428000D+01 0.1428000D+01 0.5000000D+00 0.5000000D+00 0.5000000D+00
EXPONENTS  0.5000000D+00 0.5000000D+00 0.5000000D+00 0.5000000D+00 0.5000000D+00
EXPONENTS  0.5000000D+00 0.5000000D+00 0.3387000D+02 0.5095000D+01 0.1159000D+01
EXPONENTS  0.3258000D+00 0.1027000D+00 0.2526000D-01 0.1407000D+01 0.1407000D+01
EXPONENTS  0.1407000D+01 0.3880000D+00 0.3880000D+00 0.3880000D+00 0.1020000D+00
EXPONENTS  0.1020000D+00 0.1020000D+00 0.1057000D+01 0.1057000D+01 0.1057000D+01
EXPONENTS  0.1057000D+01 0.1057000D+01 0.1057000D+01 0.2470000D+00 0.2470000D+00
EXPONENTS  0.2470000D+00 0.2470000D+00 0.2470000D+00 0.2470000D+00 0.3387000D+02
EXPONENTS  0.5095000D+01 0.1159000D+01 0.3258000D+00 0.1027000D+00 0.2526000D-01
EXPONENTS  0.1407000D+01 0.1407000D+01 0.1407000D+01 0.3880000D+00 0.3880000D+00
EXPONENTS  0.3880000D+00 0.1020000D+00 0.1020000D+00 0.1020000D+00 0.1057000D+01
EXPONENTS  0.1057000D+01 0.1057000D+01 0.1057000D+01 0.1057000D+01 0.1057000D+01
EXPONENTS  0.2470000D+00 0.2470000D+00 0.2470000D+00 0.2470000D+00 0.2470000D+00
EXPONENTS  0.2470000D+00
MO    1     MO 0.0        OCC NO =    2.0000000  ORB. ENERGY =    0.000000
  0.36687435D-01  0.68379346D-01  0.11594679D+00  0.17547314D+00  0.21888891D+00
  0.18783925D+00  0.71932454D-01  0.11449231D-03  0.12284273D-02  0.45282143D-02
  0.13240233D-01  0.15955125D-01 -0.19219639D-01 -0.67690282D-02 -0.41601400D-02
  0.21167204D-03 -0.40635287D-01 -0.39402559D-01 -0.26580734D-01  0.14514881D+01
  0.14074552D+01  0.94946099D+00  0.15736557D+00  0.15259167D+00  0.10293744D+00
 -0.90365942D-02  0.30461583D+00  0.36520768D-01 -0.15234003D-02  0.30988102D-01
  0.50726001D-02 -0.53449567D-04  0.33867481D-03  0.91111117D-04  0.42949798D-02
  0.27652940D-02 -0.70602738D-02 -0.11239801D-01  0.52408162D-03 -0.13587295D+00
  0.13573811D-02  0.25075248D-03 -0.16081335D-02 -0.16426728D-02  0.10457546D-03
 -0.20018564D-01  0.91777176D-04 -0.86139410D-05 -0.83163235D-04  0.38027316D-04
  0.75910875D-05  0.43240383D-03  0.11852013D-03  0.64053262D-02 -0.13502760D-03
 -0.47523352D-03 -0.15752665D-01 -0.26899346D-02  0.11967314D-03 -0.34633136D-02
  0.30950174D-02  0.19993774D-02 -0.55252416D-05  0.90747862D-04  0.13591996D-04
 -0.85914442D-05 -0.10571188D-02 -0.26095302D-03  0.25167169D-04  0.78487523D-03
  0.22017703D-03  0.28937645D-03 -0.40015433D-01 -0.72169481D-01 -0.10641386D+00
 -0.71088464D-01 -0.90395070D-02  0.12896739D-03 -0.27706969D-02 -0.19980890D-01
 -0.26638243D-01 -0.12112960D-02 -0.73372501D-02 -0.10754158D-01 -0.64606977D-04
  0.28967052D-03 -0.10954962D-03  0.67194382D-02 -0.27175060D-02 -0.40019322D-02
 -0.18852311D-02 -0.19693046D-02 -0.19783412D-01  0.16984832D-03  0.84145311D-04
 -0.25399363D-03 -0.92422104D-04 -0.88781654D-04 -0.74629337D-03  0.33416948D-01
  0.60268841D-01  0.88866371D-01  0.62595095D-01  0.75281512D-02 -0.13281864D-03
  0.15232426D-02 -0.16065363D-01  0.26460827D-01  0.52926384D-03 -0.58836714D-02
  0.10831524D-01 -0.37129674D-04  0.38272369D-03  0.26402582D-03 -0.62793895D-02
  0.23254891D-02  0.39539005D-02 -0.12670356D-02  0.14840902D-02 -0.19085028D-01
 -0.60320643D-04 -0.19118141D-03  0.25150205D-03 -0.11655360D-04  0.30730103D-04
 -0.58524813D-03
MO    2     MO 0.0        OCC NO =    2.0000000  ORB. ENERGY =    0.000000
  0.45574378D-01  0.84943147D-01  0.14403304D+00  0.21797869D+00  0.27191124D+00
  0.23334030D+00  0.89356938D-01  0.73343673D-04  0.78692948D-03  0.29007702D-02
  0.84816820D-02  0.10220839D-01 -0.12312084D-01 -0.14305124D-02  0.47233330D-01
  0.88854460D-02  0.14470201D+00  0.14031227D+00  0.94653831D-01 -0.18852450D+00
 -0.18280535D+00 -0.12331941D+00  0.15337948D+01  0.14872650D+01  0.10033002D+01
  0.31614753D-01 -0.37560678D-01  0.33356020D+00  0.39918057D-02 -0.29495115D-02
  0.40177598D-01  0.84661332D-04 -0.35459772D-04  0.75929829D-03  0.43138742D-01
 -0.19530361D-02 -0.41185705D-01  0.17939192D-02 -0.14722394D-01  0.18386779D-01
  0.61941667D-02  0.59882741D-02 -0.12182441D-01  0.14875211D-03 -0.32385755D-02
  0.17576308D-02 -0.70899242D-03  0.13218881D-02 -0.61289564D-03 -0.38547530D-04
  0.28224814D-05 -0.32772169D-03 -0.16487470D-02 -0.79807586D-03  0.17293163D-02
  0.13204023D-02  0.14488034D-02 -0.18430863D-01  0.36258387D-02  0.94542418D-03
  0.13242915D-01 -0.25868007D-03 -0.39965892D-04 -0.52823404D-04  0.69345822D-03
 -0.12885523D-03 -0.27978439D-05 -0.41275749D-03  0.24875290D-03  0.16126806D-03
 -0.16676172D-02  0.38270665D-04 -0.25807870D-01 -0.46545556D-01 -0.68631395D-01
 -0.49987186D-01 -0.87174103D-02 -0.13166184D-03  0.29817268D-03 -0.24090371D-01
 -0.59245645D-04  0.17479052D-03 -0.11933008D-01  0.15342508D-03  0.96016711D-04
 -0.39568697D-03  0.90968627D-03  0.33226262D-02 -0.64199345D-02  0.30973083D-02
 -0.40319772D-03  0.76271763D-04 -0.69858854D-02  0.21056018D-03 -0.32518163D-03
  0.11462144D-03  0.29651568D-04 -0.86031471D-05  0.18264441D-03 -0.34250913D-01
 -0.61772933D-01 -0.91084153D-01 -0.66596195D-01 -0.10069392D-01 -0.97790181D-04
 -0.27568274D-03  0.31036107D-01 -0.54731950D-02 -0.25794393D-04  0.14017953D-01
 -0.15570315D-02  0.99469367D-04  0.21554958D-03  0.95885329D-03  0.52137680D-02
 -0.80647110D-02  0.28509431D-02  0.91724176D-03 -0.32668716D-03  0.11882126D-01
  0.13209300D-03 -0.24095843D-03  0.10886543D-03 -0.38239564D-04  0.53540501D-05
 -0.32972881D-03
MO    3     MO 0.0        OCC NO =    2.0000000  ORB. ENERGY =    0.000000
  0.49921986D+00  0.93046374D+00  0.15777320D+01  0.23877297D+01  0.29785045D+01
  0.25560000D+01  0.97881222D+00  0.14944458D-03  0.16034423D-02  0.59105902D-02
  0.17282219D-01  0.20825914D-01 -0.25087021D-01  0.43575014D-01 -0.92632066D-02
 -0.11418798D-02  0.10782848D+00  0.10455736D+00  0.70533776D-01 -0.74727088D-01
 -0.72460139D-01 -0.48881181D-01 -0.17077797D+00 -0.16559719D+00 -0.11171088D+00
  0.24584304D-01 -0.15127037D-01 -0.35743947D-01  0.41636401D-02 -0.13991755D-02
 -0.47320223D-02  0.13906304D-03 -0.90789602D-05 -0.97669603D-04 -0.55521832D-02
  0.70480192D-03  0.48473813D-02  0.75701094D-03 -0.32715831D-02  0.62970925D-02
 -0.16022018D-03 -0.11628683D-02  0.13230885D-02  0.74659737D-04 -0.10788783D-02
  0.61673934D-03  0.10350203D-03 -0.17149210D-03  0.67990069D-04 -0.83756483D-05
 -0.97929612D-04 -0.57856716D-04 -0.49707071D-03 -0.30981843D-03  0.45590017D-04
  0.12109717D-02  0.46731805D-03  0.28550016D-02  0.28024045D-03  0.46213725D-03
 -0.29917717D-02  0.26288376D-04 -0.52127529D-04 -0.14319356D-04 -0.17727603D-03
  0.11286124D-03  0.70240046D-04 -0.23623846D-03  0.43521344D-04 -0.27281979D-04
  0.76806655D-03  0.79163571D-05  0.37629770D-02  0.67866839D-02  0.10006962D-01
  0.84988320D-02  0.15942686D-02  0.15808360D-04  0.16106640D-02  0.22685534D-02
  0.56854570D-03  0.88041620D-03  0.13472348D-02  0.33909646D-03  0.12589588D-03
  0.36097823D-04 -0.10338486D-03  0.78719390D-04  0.19232256D-03 -0.27104195D-03
  0.73006966D-03  0.56491616D-03 -0.48558651D-03 -0.29835582D-04  0.31484292D-04
 -0.16487098D-05  0.78685339D-04  0.55647257D-04  0.13757231D-04 -0.20322019D-03
 -0.36651597D-03 -0.54042759D-03  0.54456832D-03  0.35847676D-03  0.18784255D-04
  0.14591366D-02  0.10424546D-03 -0.27870660D-02  0.81314325D-03 -0.12398404D-03
 -0.12772199D-02  0.12782555D-03 -0.16920455D-05 -0.16561375D-03  0.11261399D-02
 -0.43917183D-03 -0.68696804D-03 -0.54083320D-03  0.32041843D-03  0.35858152D-02
  0.67292278D-05  0.20688494D-04 -0.27417722D-04 -0.77206253D-04  0.48799479D-04
  0.12193176D-03
MO    4     MO 0.0        OCC NO =    2.0000000  ORB. ENERGY =    0.000000
 -0.57585716D-01 -0.10733031D+00 -0.18199362D+00 -0.27542799D+00 -0.34357470D+00
 -0.29483821D+00 -0.11290737D+00 -0.62555013D-03 -0.67117424D-02 -0.24740746D-01
 -0.72340491D-01 -0.87173809D-01  0.10501009D+00  0.57812341D-01  0.34241155D-01
  0.26603934D-02  0.16755143D+01  0.16246852D+01  0.10960031D+01  0.74469119D-01
  0.72209995D-01  0.48712436D-01 -0.10621273D-01 -0.10299062D-01 -0.69476864D-02
  0.37825240D+00  0.15336595D-01 -0.51453326D-02  0.62648239D-01  0.14635601D-02
 -0.45589171D-03  0.20202875D-02  0.19097255D-04 -0.80832728D-04 -0.96519484D-02
  0.72169094D-02  0.24350390D-02  0.31107173D-02 -0.66504182D-01 -0.71615935D-02
 -0.31115361D-02  0.22693673D-02  0.84216873D-03  0.17920917D-03 -0.17569314D-01
 -0.61582043D-03 -0.17214228D-03  0.10254046D-03  0.69601826D-04 -0.66674045D-04
 -0.12315500D-02  0.64698846D-04 -0.97211696D-02  0.42939205D-03  0.64464200D-04
  0.19606867D-01 -0.87217478D-03  0.45793543D-02  0.95566417D-02 -0.41600137D-03
 -0.47727469D-02  0.58738607D-04 -0.42393263D-03  0.10788789D-04 -0.76322304D-04
  0.67589582D-03  0.13353801D-04  0.28969818D-03  0.59590206D-03 -0.45720167D-04
 -0.60731269D-04  0.39868005D-03  0.24454490D-02  0.44104679D-02  0.65032324D-02
 -0.34436354D-02 -0.23470499D-02 -0.36622296D-04  0.21862988D-01  0.36840827D-02
  0.27927703D-02  0.11758800D-01 -0.95026436D-03 -0.57033971D-03  0.18447720D-02
 -0.15925240D-03 -0.11242619D-03  0.53838735D-03 -0.28441205D-03 -0.25397530D-03
  0.10619055D-01  0.84342349D-02 -0.73577548D-04  0.98025484D-04 -0.55483038D-04
 -0.42542446D-04  0.10632617D-02  0.68058219D-03 -0.13686077D-03  0.64844197D-02
  0.11694918D-01  0.17244150D-01  0.34981386D-02 -0.15017776D-02 -0.48949264D-04
  0.23745465D-01 -0.61630391D-02  0.56385261D-02  0.12690142D-01  0.20276496D-03
  0.52536764D-03  0.19410897D-02  0.18857341D-03 -0.90747796D-04 -0.17789883D-03
  0.11739150D-03  0.60507337D-04 -0.11810069D-01  0.87220306D-02 -0.22509514D-02
  0.98457715D-04 -0.68781096D-04 -0.29676619D-04 -0.11928396D-02  0.73355184D-03
  0.87658823D-04
MO    5     MO 0.0        OCC NO =    2.0000000  ORB. ENERGY =    0.000000
 -0.57663239D-01 -0.10747480D+00 -0.18223862D+00 -0.27579877D+00 -0.34403723D+00
 -0.29523513D+00 -0.11305937D+00 -0.16213206D-02 -0.17395706D-01 -0.64123849D-01
 -0.18749437D+00 -0.22593984D+00  0.27216847D+00  0.16063307D+00  0.89857194D-01
  0.70096055D-02 -0.60694987D+00 -0.58853721D+00 -0.39702372D+00  0.49513367D-01
  0.48011311D-01  0.32388147D-01  0.38446272D+00  0.37279951D+00  0.25148835D+00
 -0.13768035D+00  0.95713344D-02  0.79724986D-01 -0.22713163D-01  0.57630685D-03
  0.14106760D-01 -0.74852254D-03  0.46992206D-05  0.28331717D-03 -0.88250891D-02
  0.18788481D-01 -0.99633924D-02 -0.20039631D-02  0.25915503D-01 -0.50419580D-02
 -0.36988692D-02  0.58899284D-02 -0.21910592D-02 -0.12428422D-03  0.71862096D-02
  0.31449425D-03 -0.15145064D-03  0.27627164D-03 -0.12482100D-03  0.33450180D-04
  0.48808991D-03  0.10867550D-03  0.38539726D-02  0.38623297D-03  0.26427061D-02
 -0.82803511D-02 -0.36641668D-03  0.10859209D-03 -0.32815668D-02 -0.79228223D-03
 -0.80367102D-02 -0.19525337D-06  0.17807059D-03  0.11520841D-04 -0.59115384D-04
 -0.25199914D-03  0.53018306D-04  0.91256152D-04 -0.28221263D-03 -0.87580828D-04
  0.86090001D-04 -0.17791909D-03  0.95048217D-02  0.17142337D-01  0.25276366D-01
 -0.33390910D-02 -0.54096643D-02 -0.10703641D-03 -0.70528649D-02  0.10791144D-01
  0.14843117D-01 -0.42986370D-02 -0.21064855D-02  0.23128489D-02 -0.69007990D-03
 -0.46068367D-03  0.17579186D-03 -0.99395558D-03 -0.76930404D-03  0.17632596D-02
 -0.37500163D-02 -0.28156428D-02  0.35987212D-02  0.82602767D-04 -0.16457679D-03
  0.81974027D-04 -0.41034994D-03 -0.26783380D-03 -0.35135966D-04  0.13402945D-01
  0.24172762D-01  0.35642724D-01  0.25034832D-02 -0.47529072D-02 -0.11753474D-03
 -0.73618799D-02 -0.14208565D-01  0.17792026D-01 -0.45431972D-02  0.12674010D-02
  0.33628150D-02 -0.72553476D-03  0.45633175D-03  0.21672651D-03 -0.18143619D-02
 -0.94584229D-04  0.19089462D-02  0.38973023D-02 -0.26716869D-02 -0.63316938D-02
  0.75749069D-04 -0.15947089D-03  0.83721821D-04  0.45755568D-03 -0.28609331D-03
 -0.11660851D-04
END DATA
 TOTAL ENERGY =    -76.465205342093 THE VIRIAL(-V/T)=   2.00667960
