 50
GAUSSIAN              5 MOL ORBITALS    126 PRIMITIVES        3 NUCLEI   B3LYP   B3LYP   B3LYP
  O    1    (CENTRE  1)  -0.09448631  0.00000000  0.00815606  CHARGE =  8.0
  H    2    (CENTRE  2)   0.00000000 -1.44255835 -1.19178791  CHARGE =  1.0
  H    3    (CENTRE  3)   0.00000000  1.44255835 -1.09730160  CHARGE =  1.0
CENTRE ASSIGNMENTS    1  1  1  1  1  1  1  1  1  1  1  1  1  1  1  1  1  1  1  1
CENTRE ASSIGNMENTS    1  1  1  1  1  1  1  1  1  1  1  1  1  1  1  1  1  1  1  1
CENTRE ASSIGNMENTS    1  1  1  1  1  1  1  1  1  1  1  1  1  1  1  1  1  1  1  1
CENTRE ASSIGNMENTS    1  1  1  1  1  1  1  1  1  1  1  1  2  2  2  2  2  2  2  2
CENTRE ASSIGNMENTS    2  2  2  2  2  2  2  2  2  2  2  2  2  2  2  2  2  2  2  3
CENTRE ASSIGNMENTS    3  3  3  3  3  3  3  3  3  3  3  3  3  3  3  3  3  3  3  3
CENTRE ASSIGNMENTS    3  3  3  3  3  3
TYPE ASSIGNMENTS      1  1  1  1  1  1  1  1  1  1  1  1  1  1  1  1  2  2  2  3
TYPE ASSIGNMENTS      3  3  4  4  4  2  3  4  2  3  4  2  3  4  5  6  7  8  9 10
TYPE ASSIGNMENTS      5  6  7  8  9 10  5  6  7  8  9 10 11 12 13 17 14 15 18 19
TYPE ASSIGNMENTS     16 20 11 12 13 17 14 15 18 19 16 20  1  1  1  1  1  1  2  3
TYPE ASSIGNMENTS      4  2  3  4  2  3  4  5  6  7  8  9 10  5  6  7  8  9 10  1
TYPE ASSIGNMENTS      1  1  1  1  1  2  3  4  2  3  4  2  3  4  5  6  7  8  9 10
TYPE ASSIGNMENTS      5  6  7  8  9 10
EXPONENTS  0.1533000D+05 0.2299000D+04 0.5224000D+03 0.1473000D+03 0.4755000D+02
EXPONENTS  0.1676000D+02 0.6207000D+01 0.5224000D+03 0.1473000D+03 0.4755000D+02
EXPONENTS  0.1676000D+02 0.6207000D+01 0.6882000D+00 0.1752000D+01 0.2384000D+00
EXPONENTS  0.7376000D-01 0.3446000D+02 0.7749000D+01 0.2280000D+01 0.3446000D+02
EXPONENTS  0.7749000D+01 0.2280000D+01 0.3446000D+02 0.7749000D+01 0.2280000D+01
EXPONENTS  0.7156000D+00 0.7156000D+00 0.7156000D+00 0.2140000D+00 0.2140000D+00
EXPONENTS  0.2140000D+00 0.5974000D-01 0.5974000D-01 0.5974000D-01 0.2314000D+01
EXPONENTS  0.2314000D+01 0.2314000D+01 0.2314000D+01 0.2314000D+01 0.2314000D+01
EXPONENTS  0.6450000D+00 0.6450000D+00 0.6450000D+00 0.6450000D+00 0.6450000D+00
EXPONENTS  0.6450000D+00 0.2140000D+00 0.2140000D+00 0.2140000D+00 0.2140000D+00
EXPONENTS  0.2140000D+00 0.2140000D+00 0.1428000D+01 0.1428000D+01 0.1428000D+01
EXPONENTS  0.1428000D+01 0.1428000D+01 0.1428000D+01 0.1428000D+01 0.1428000D+01
EXPONENTS  0.1428000D+01 0.1428000D+01 0.5000000D+00 0.5000000D+00 0.5000000D+00
EXPONENTS  0.5000000D+00 0.5000000D+00 0.5000000D+00 0.5000000D+00 0.5000000D+00
EXPONENTS  0.5000000D+00 0.5000000D+00 0.3387000D+02 0.5095000D+01 0.1159000D+01
EXPONENTS  0.3258000D+00 0.1027000D+00 0.2526000D-01 0.1407000D+01 0.1407000D+01
EXPONENTS  0.1407000D+01 0.3880000D+00 0.3880000D+00 0.3880000D+00 0.1020000D+00
EXPONENTS  0.1020000D+00 0.1020000D+00 0.1057000D+01 0.1057000D+01 0.1057000D+01
EXPONENTS  0.1057000D+01 0.1057000D+01 0.1057000D+01 0.2470000D+00 0.2470000D+00
EXPONENTS  0.2470000D+00 0.2470000D+00 0.2470000D+00 0.2470000D+00 0.3387000D+02
EXPONENTS  0.5095000D+01 0.1159000D+01 0.3258000D+00 0.1027000D+00 0.2526000D-01
EXPONENTS  0.1407000D+01 0.1407000D+01 0.1407000D+01 0.3880000D+00 0.3880000D+00
EXPONENTS  0.3880000D+00 0.1020000D+00 0.1020000D+00 0.1020000D+00 0.1057000D+01
EXPONENTS  0.1057000D+01 0.1057000D+01 0.1057000D+01 0.1057000D+01 0.1057000D+01
EXPONENTS  0.2470000D+00 0.2470000D+00 0.2470000D+00 0.2470000D+00 0.2470000D+00
EXPONENTS  0.2470000D+00
MO    1     MO 0.0        OCC NO =    2.0000000  ORB. ENERGY =    0.000000
  0.26909986D-01  0.50155790D-01  0.85046189D-01  0.12870836D+00  0.16055354D+00
  0.13777882D+00  0.52761970D-01  0.14058869D-03  0.15084244D-02  0.55603363D-02
  0.16258097D-01  0.19591798D-01 -0.23600397D-01 -0.10534557D-01  0.57040616D-03
  0.12146139D-02  0.79737385D-02  0.77318442D-02  0.52158564D-02  0.14193048D+01
  0.13762482D+01  0.92840890D+00  0.33957916D+00  0.32927756D+00  0.22212870D+00
  0.17876462D-02  0.29809686D+00  0.76133660D-01  0.47646615D-03  0.30431209D-01
  0.97804951D-02  0.24841957D-04  0.33204835D-03  0.17974062D-03  0.97119901D-02
  0.22217348D-02 -0.11933725D-01  0.10911117D-01  0.19037464D-02 -0.13274407D+00
  0.21397012D-02  0.92181621D-03 -0.30615174D-02  0.16112620D-02  0.45707863D-03
 -0.19676946D-01  0.41577324D-05  0.15177799D-03 -0.15593573D-03 -0.32477741D-04
  0.32083967D-05  0.38999727D-03  0.17667304D-03  0.62645707D-02  0.30329881D-04
  0.11733656D-03 -0.15467502D-01 -0.49515098D-02 -0.64735567D-03 -0.33262105D-02
  0.48605202D-02 -0.19520041D-02  0.13685056D-04  0.84000849D-04  0.10293173D-03
  0.20032928D-04 -0.10520986D-02 -0.30110983D-03 -0.61088095D-04  0.80009601D-03
 -0.76853594D-05 -0.29634434D-03 -0.43059632D-01 -0.77659820D-01 -0.11450936D+00
 -0.76765539D-01 -0.99908902D-02  0.11316452D-03  0.25382428D-02 -0.22944264D-01
 -0.26677320D-01  0.10790607D-02 -0.87267602D-02 -0.10701600D-01  0.35971506D-04
  0.24528831D-03  0.48219994D-06  0.70820766D-02 -0.34628082D-02 -0.36192684D-02
  0.18270962D-02  0.18739011D-02 -0.20510107D-01  0.19392295D-03  0.45774600D-04
 -0.23969755D-03  0.78558826D-04  0.83071495D-04 -0.71902178D-03  0.28860924D-01
  0.52051865D-01  0.76750445D-01  0.54057867D-01  0.63160243D-02 -0.14247368D-03
 -0.16721919D-02 -0.12014861D-01  0.25424390D-01 -0.63445989D-03 -0.41678870D-02
  0.10547539D-01  0.72940635D-05  0.39929816D-03  0.37841912D-03 -0.56101682D-02
  0.13536801D-02  0.42564882D-02  0.12529006D-02 -0.15106306D-02 -0.17528223D-01
 -0.44892526D-04 -0.21707106D-03  0.26196359D-03  0.27197411D-04 -0.37953673D-04
 -0.62343883D-03
MO    2     MO 0.0        OCC NO =    2.0000000  ORB. ENERGY =    0.000000
  0.35035684D-01  0.65300755D-01  0.11072661D+00  0.16757294D+00  0.20903404D+00
  0.17938230D+00  0.68693893D-01  0.26831136D-03  0.28788048D-02  0.10611817D-01
  0.31028329D-01  0.37390646D-01 -0.45040995D-01 -0.22912635D-01  0.35406926D-01
  0.78288002D-02 -0.10122101D+00 -0.98150331D-01 -0.66211633D-01 -0.36987807D+00
 -0.35865731D+00 -0.24194810D+00  0.14549411D+01  0.14108035D+01  0.95171968D+00
 -0.21862310D-01 -0.75562156D-01  0.31669002D+00 -0.23870101D-02 -0.67844785D-02
  0.37582025D-01 -0.35713830D-04 -0.77539934D-04  0.71393667D-03  0.43673968D-01
 -0.47649573D-02 -0.38909010D-01 -0.31238605D-02  0.12948857D-01  0.35428865D-01
  0.65341565D-02  0.51189939D-02 -0.11653150D-01 -0.34566042D-03  0.28061860D-02
  0.41510880D-02 -0.68470242D-03  0.12709269D-02 -0.58622448D-03  0.41599735D-04
 -0.31821607D-04 -0.38919464D-03  0.14090695D-02 -0.16240534D-02  0.14287233D-02
 -0.94561934D-03  0.34227171D-02 -0.18206120D-01 -0.32815893D-02  0.14494432D-02
  0.13919950D-01  0.50227692D-03  0.28863137D-04 -0.64517713D-04  0.69751746D-03
  0.14572949D-03  0.11708334D-03 -0.39575596D-03 -0.23231890D-03  0.76469797D-04
 -0.16967964D-02  0.43567686D-05 -0.21827601D-01 -0.39366978D-01 -0.58046586D-01
 -0.40229773D-01 -0.67959878D-02 -0.13187432D-03  0.70974040D-04 -0.22745961D-01
  0.13878993D-02  0.40097197D-05 -0.10605227D-01  0.12365071D-02 -0.53687714D-04
 -0.36595542D-03  0.90011262D-03  0.25226080D-02 -0.58926177D-02  0.33700098D-02
  0.47174822D-03 -0.55887235D-04 -0.48367742D-02  0.17228154D-03 -0.30995566D-03
  0.13767412D-03 -0.13540488D-04  0.14481947D-04  0.28268330D-03 -0.39624450D-01
 -0.71464327D-01 -0.10537411D+00 -0.73664001D-01 -0.10228490D-01 -0.64873681D-04
  0.12414506D-02  0.34419523D-01 -0.10795004D-01  0.44479559D-03  0.14365794D-01
 -0.32057619D-02 -0.51283843D-04  0.10443345D-03  0.89917891D-03  0.60667919D-02
 -0.82036898D-02  0.21368979D-02 -0.14161649D-02  0.78717808D-03  0.14730712D-01
  0.12263655D-03 -0.19294814D-03  0.70311593D-04  0.60980710D-05  0.16522934D-04
 -0.26146855D-03
MO    3     MO 0.0        OCC NO =    2.0000000  ORB. ENERGY =    0.000000
  0.49820803D+00  0.92857785D+00  0.15745342D+01  0.23828901D+01  0.29724676D+01
  0.25508194D+01  0.97682833D+00  0.79609402D-04  0.85415664D-03  0.31485822D-02
  0.92062697D-02  0.11094003D-01 -0.13363902D-01  0.50717554D-01 -0.33052440D-02
 -0.45611880D-03 -0.84666988D-01 -0.82098498D-01 -0.55383162D-01 -0.39921436D-01
 -0.38710364D-01 -0.26113783D-01 -0.87671272D-01 -0.85011643D-01 -0.57348352D-01
 -0.19286561D-01 -0.77828581D-02 -0.17792148D-01 -0.32403119D-02 -0.63645268D-03
 -0.23411102D-02 -0.10667220D-03 -0.95725670D-06 -0.51848762D-04 -0.41322789D-02
  0.15771366D-02  0.25551423D-02 -0.42648810D-03  0.26541728D-02  0.30507264D-02
 -0.51075732D-04 -0.64254040D-03  0.69361613D-03 -0.29675660D-04  0.87473972D-03
  0.15084216D-03  0.70686955D-04 -0.10627669D-03  0.35589733D-04  0.73106638D-05
  0.75213626D-04 -0.53753556D-04  0.38270214D-03 -0.14710185D-03  0.23281655D-03
 -0.87063989D-03  0.74678302D-04  0.20539986D-02 -0.27746654D-03  0.36662725D-03
 -0.27524482D-02 -0.70789496D-04  0.45639352D-04 -0.13348533D-04 -0.15189934D-03
 -0.95850954D-04  0.43486529D-04 -0.25480459D-03 -0.41067104D-04 -0.34409289D-05
  0.71050260D-03 -0.92314635D-05  0.20818104D-02  0.37546308D-02  0.55362009D-02
  0.44024985D-02  0.74676508D-03  0.91215092D-05 -0.12240928D-02  0.12674897D-02
  0.52568888D-03 -0.65721452D-03  0.57386342D-03  0.15702515D-03 -0.96321706D-04
  0.68711930D-05 -0.62113979D-04  0.34784326D-03 -0.17188231D-03 -0.17596095D-03
 -0.49094690D-03 -0.38531736D-03 -0.11351264D-02 -0.12927942D-04  0.13213718D-04
 -0.28577687D-06 -0.58514632D-04 -0.40583644D-04 -0.11869387D-05 -0.15091340D-04
 -0.27217854D-04 -0.40132710D-04 -0.25436889D-03 -0.55052863D-04  0.57659169D-05
 -0.11542443D-02  0.22734826D-03 -0.14438321D-02 -0.61885499D-03  0.32762017D-03
 -0.88282700D-03 -0.97527693D-04  0.38569963D-04 -0.11012112D-03  0.10731992D-02
 -0.69730325D-03 -0.37589595D-03  0.36180309D-03 -0.22683671D-03  0.32293847D-02
  0.13834486D-04 -0.15411620D-05 -0.12293324D-04  0.58087746D-04 -0.36748653D-04
  0.92102774D-04
MO    4     MO 0.0        OCC NO =    2.0000000  ORB. ENERGY =    0.000000
 -0.94967234D-01 -0.17700331D+00 -0.30013399D+00 -0.45422087D+00 -0.56660474D+00
 -0.48623116D+00 -0.18620070D+00 -0.16062205D-02 -0.17233692D-01 -0.63526634D-01
 -0.18574815D+00 -0.22383555D+00  0.26963365D+00  0.15475937D+00  0.95004513D-01
  0.80497622D-02 -0.68257226D+00 -0.66186548D+00 -0.44649055D+00  0.55035734D-01
  0.53366149D-01  0.36000489D-01  0.46790310D+00  0.45370862D+00  0.30606915D+00
 -0.15346915D+00  0.10975394D-01  0.96940725D-01 -0.25329797D-01  0.86070691D-03
  0.15108821D-01 -0.79950373D-03  0.96596901D-05  0.25012246D-03 -0.74742945D-02
  0.18331744D-01 -0.10857449D-01 -0.87011200D-03  0.26875695D-01 -0.54606886D-02
 -0.40401423D-02  0.66139447D-02 -0.25738024D-02 -0.55416402D-04  0.67623964D-02
  0.16158625D-03 -0.31700583D-03  0.43913461D-03 -0.12212879D-03  0.24432155D-04
  0.45666027D-03  0.82071735D-04  0.38184243D-02  0.43660825D-03  0.21958530D-02
 -0.70780080D-02 -0.57347640D-03  0.79162574D-03 -0.43772650D-02 -0.73634834D-03
 -0.73791846D-02  0.85889571D-05  0.15400451D-03  0.90970811D-05 -0.29817650D-05
 -0.24451227D-03  0.52718907D-04  0.22083436D-03 -0.21750125D-03 -0.80010150D-04
 -0.21188907D-03 -0.13670044D-03  0.56265055D-02  0.10147634D-01  0.14962681D-01
 -0.10633320D-01 -0.65957779D-02 -0.12069546D-03 -0.93592191D-02  0.75138792D-02
  0.12943010D-01 -0.46613269D-02 -0.36321307D-02  0.14071434D-02 -0.72764254D-03
 -0.49649312D-03  0.17007924D-03 -0.21383535D-04 -0.15239018D-02  0.15452853D-02
 -0.42467064D-02 -0.35451039D-02  0.19138020D-02  0.15151069D-03 -0.19940011D-03
  0.47889416D-04 -0.40716047D-03 -0.25347194D-03 -0.89614904D-04  0.97564587D-02
  0.17596175D-01  0.25945550D-01 -0.44325326D-02 -0.57910082D-02 -0.13064509D-03
 -0.10288693D-01 -0.10652805D-01  0.16078539D-01 -0.50664982D-02  0.28230041D-02
  0.26012601D-02 -0.76581634D-03  0.48447770D-03  0.22022194D-03 -0.81439750D-03
 -0.97384940D-03  0.17882469D-02  0.48522227D-02 -0.37770558D-02 -0.47035406D-02
  0.13750120D-03 -0.19175060D-03  0.54249402D-04  0.45901409D-03 -0.27637042D-03
  0.92377787D-05
MO    5     MO 0.0        OCC NO =    2.0000000  ORB. ENERGY =    0.000000
 -0.10147254D-01 -0.18912813D-01 -0.32069332D-01 -0.48533524D-01 -0.60541746D-01
 -0.51953825D-01 -0.19895555D-01 -0.61868958D-03 -0.66381332D-02 -0.24469409D-01
 -0.71547116D-01 -0.86217754D-01  0.10385842D+00  0.62715221D-01  0.35918175D-01
  0.29563477D-02  0.16512330D+01  0.16011406D+01  0.10801200D+01 -0.90680594D-02
 -0.87929673D-02 -0.59316838D-02  0.30918080D+00  0.29980137D+00  0.20224423D+00
  0.37324307D+00 -0.22019040D-02  0.66733660D-01  0.61792052D-01 -0.40050005D-03
  0.10942910D-01  0.20046777D-02 -0.80287045D-05  0.27187355D-03  0.25666927D-02
  0.71321567D-02 -0.96988494D-02  0.37505752D-02 -0.66494372D-01  0.75936195D-03
  0.16254165D-04  0.24299968D-02 -0.24462510D-02  0.23246467D-03 -0.17815917D-01
  0.47754926D-03  0.72258148D-05  0.14589953D-03 -0.15312535D-03 -0.71629361D-04
 -0.12447427D-02  0.22863223D-04 -0.97770252D-02 -0.28064642D-05  0.17552073D-02
  0.20116288D-01  0.25645328D-03 -0.39038400D-02  0.92147876D-02 -0.24803389D-03
 -0.13617820D-02  0.29655730D-04 -0.43468654D-03 -0.19988574D-06  0.40096399D-04
  0.67760004D-03  0.11861687D-04 -0.15982319D-03  0.62645958D-03 -0.11262030D-04
  0.39533995D-04  0.41140716D-03  0.33459319D-02  0.60345259D-02  0.88979049D-02
 -0.19221538D-02 -0.22260843D-02 -0.46558339D-04  0.21036919D-01  0.35870129D-02
  0.75257501D-02  0.11648875D-01 -0.11128242D-02  0.18458306D-02  0.18345897D-02
 -0.19679595D-03  0.22532870D-03 -0.91317466D-03 -0.49426739D-03  0.14074421D-02
  0.10451806D-01  0.81875766D-02  0.20899595D-02 -0.98364269D-05 -0.76654039D-04
  0.86490466D-04  0.10672237D-02  0.68773121D-03  0.74384268D-04  0.36478364D-02
  0.65790232D-02  0.97007659D-02 -0.19105042D-02 -0.22330912D-02 -0.46457241D-04
  0.22606256D-01 -0.43149287D-02  0.79191116D-02  0.12488777D-01  0.97949125D-03
  0.19719660D-02  0.19295524D-02  0.17374940D-03  0.24371009D-03 -0.10539954D-02
 -0.30898594D-03  0.13629813D-02 -0.11408579D-01  0.82706944D-02 -0.25794826D-02
 -0.20278850D-04 -0.63887497D-04  0.84166347D-04 -0.11937074D-02  0.73746696D-03
 -0.91180130D-04
END DATA
 TOTAL ENERGY =    -76.465205342093 THE VIRIAL(-V/T)=   2.00667960
