 51
GAUSSIAN              5 MOL ORBITALS    126 PRIMITIVES        3 NUCLEI   B3LYP   B3LYP   B3LYP
  O    1    (CENTRE  1)   0.00000000  0.09448631  0.00815606  CHARGE =  8.0
  H    2    (CENTRE  2)   0.00000000 -1.44255835 -1.00281530  CHARGE =  1.0
  H    3    (CENTRE  3)   0.00000000  1.44255835 -1.09730160  CHARGE =  1.0
CENTRE ASSIGNMENTS    1  1  1  1  1  1  1  1  1  1  1  1  1  1  1  1  1  1  1  1
CENTRE ASSIGNMENTS    1  1  1  1  1  1  1  1  1  1  1  1  1  1  1  1  1  1  1  1
CENTRE ASSIGNMENTS    1  1  1  1  1  1  1  1  1  1  1  1  1  1  1  1  1  1  1  1
CENTRE ASSIGNMENTS    1  1  1  1  1  1  1  1  1  1  1  1  2  2  2  2  2  2  2  2
CENTRE ASSIGNMENTS    2  2  2  2  2  2  2  2  2  2  2  2  2  2  2  2  2  2  2  3
CENTRE ASSIGNMENTS    3  3  3  3  3  3  3  3  3  3  3  3  3  3  3  3  3  3  3  3
CENTRE ASSIGNMENTS    3  3  3  3  3  3
TYPE ASSIGNMENTS      1  1  1  1  1  1  1  1  1  1  1  1  1  1  1  1  2  2  2  3
TYPE ASSIGNMENTS      3  3  4  4  4  2  3  4  2  3  4  2  3  4  5  6  7  8  9 10
TYPE ASSIGNMENTS      5  6  7  8  9 10  5  6  7  8  9 10 11 12 13 17 14 15 18 19
TYPE ASSIGNMENTS     16 20 11 12 13 17 14 15 18 19 16 20  1  1  1  1  1  1  2  3
TYPE ASSIGNMENTS      4  2  3  4  2  3  4  5  6  7  8  9 10  5  6  7  8  9 10  1
TYPE ASSIGNMENTS      1  1  1  1  1  2  3  4  2  3  4  2  3  4  5  6  7  8  9 10
TYPE ASSIGNMENTS      5  6  7  8  9 10
EXPONENTS  0.1533000D+05 0.2299000D+04 0.5224000D+03 0.1473000D+03 0.4755000D+02
EXPONENTS  0.1676000D+02 0.6207000D+01 0.5224000D+03 0.1473000D+03 0.4755000D+02
EXPONENTS  0.1676000D+02 0.6207000D+01 0.6882000D+00 0.1752000D+01 0.2384000D+00
EXPONENTS  0.7376000D-01 0.3446000D+02 0.7749000D+01 0.2280000D+01 0.3446000D+02
EXPONENTS  0.7749000D+01 0.2280000D+01 0.3446000D+02 0.7749000D+01 0.2280000D+01
EXPONENTS  0.7156000D+00 0.7156000D+00 0.7156000D+00 0.2140000D+00 0.2140000D+00
EXPONENTS  0.2140000D+00 0.5974000D-01 0.5974000D-01 0.5974000D-01 0.2314000D+01
EXPONENTS  0.2314000D+01 0.2314000D+01 0.2314000D+01 0.2314000D+01 0.2314000D+01
EXPONENTS  0.6450000D+00 0.6450000D+00 0.6450000D+00 0.6450000D+00 0.6450000D+00
EXPONENTS  0.6450000D+00 0.2140000D+00 0.2140000D+00 0.2140000D+00 0.2140000D+00
EXPONENTS  0.2140000D+00 0.2140000D+00 0.1428000D+01 0.1428000D+01 0.1428000D+01
EXPONENTS  0.1428000D+01 0.1428000D+01 0.1428000D+01 0.1428000D+01 0.1428000D+01
EXPONENTS  0.1428000D+01 0.1428000D+01 0.5000000D+00 0.5000000D+00 0.5000000D+00
EXPONENTS  0.5000000D+00 0.5000000D+00 0.5000000D+00 0.5000000D+00 0.5000000D+00
EXPONENTS  0.5000000D+00 0.5000000D+00 0.3387000D+02 0.5095000D+01 0.1159000D+01
EXPONENTS  0.3258000D+00 0.1027000D+00 0.2526000D-01 0.1407000D+01 0.1407000D+01
EXPONENTS  0.1407000D+01 0.3880000D+00 0.3880000D+00 0.3880000D+00 0.1020000D+00
EXPONENTS  0.1020000D+00 0.1020000D+00 0.1057000D+01 0.1057000D+01 0.1057000D+01
EXPONENTS  0.1057000D+01 0.1057000D+01 0.1057000D+01 0.2470000D+00 0.2470000D+00
EXPONENTS  0.2470000D+00 0.2470000D+00 0.2470000D+00 0.2470000D+00 0.3387000D+02
EXPONENTS  0.5095000D+01 0.1159000D+01 0.3258000D+00 0.1027000D+00 0.2526000D-01
EXPONENTS  0.1407000D+01 0.1407000D+01 0.1407000D+01 0.3880000D+00 0.3880000D+00
EXPONENTS  0.3880000D+00 0.1020000D+00 0.1020000D+00 0.1020000D+00 0.1057000D+01
EXPONENTS  0.1057000D+01 0.1057000D+01 0.1057000D+01 0.1057000D+01 0.1057000D+01
EXPONENTS  0.2470000D+00 0.2470000D+00 0.2470000D+00 0.2470000D+00 0.2470000D+00
EXPONENTS  0.2470000D+00
MO    1     MO 0.0        OCC NO =    2.0000000  ORB. ENERGY =    0.000000
  0.82241400D-01  0.15328445D+00  0.25991532D+00  0.39335420D+00  0.49067836D+00
  0.42107503D+00  0.16124937D+00  0.18326763D-04  0.19663414D-03  0.72483047D-03
  0.21193618D-02  0.25539340D-02 -0.30764841D-02  0.87150552D-02  0.14396817D-01
  0.30360431D-02 -0.75592587D-01 -0.73299382D-01 -0.49447330D-01  0.13731651D+01
  0.13315082D+01  0.89822757D+00  0.50118697D+00  0.48598277D+00  0.32784111D+00
 -0.17060736D-01  0.28253133D+00  0.11267701D+00 -0.27873580D-02  0.25545184D-01
  0.15477926D-01 -0.88589303D-04  0.23995827D-03  0.32141936D-03  0.14756979D-01
 -0.51408870D-02 -0.96160917D-02 -0.27348362D-04  0.31262462D-02 -0.12507892D+00
  0.27266500D-02  0.86668686D-03 -0.35933369D-02  0.59740226D-04  0.77597433D-03
 -0.15963087D-01 -0.10305414D-03  0.41917573D-03 -0.31612159D-03  0.10541142D-04
  0.48884747D-04  0.11120806D-02  0.45423943D-03  0.69440755D-02  0.69527615D-03
 -0.98925537D-03 -0.13861102D-01 -0.62775061D-02 -0.37346291D-03 -0.69711241D-02
  0.41916777D-02  0.87068323D-04  0.12314687D-04  0.71883131D-04  0.59520368D-04
 -0.17243025D-04 -0.68870030D-03 -0.27849033D-03 -0.19701036D-04  0.47305091D-03
  0.99929221D-04 -0.32136044D-04 -0.45043385D-01 -0.81237600D-01 -0.11978479D+00
 -0.84217168D-01 -0.11338877D-01  0.58317786D-04 -0.10179761D-02 -0.30962627D-01
 -0.22474167D-01 -0.55560976D-03 -0.12718192D-01 -0.90642284D-02 -0.86643853D-04
  0.31539181D-04  0.17912732D-03  0.81089007D-02 -0.80909111D-02 -0.17989684D-04
 -0.53123227D-03 -0.33901793D-03 -0.21653805D-01  0.14139653D-03 -0.61601959D-04
 -0.79794575D-04 -0.55657819D-04 -0.28909823D-04 -0.54199224D-03  0.24936856D-01
  0.44974647D-01  0.66315091D-01  0.45755904D-01  0.42811561D-02 -0.13458063D-03
 -0.11491666D-02 -0.10254966D-01  0.28768766D-01 -0.62448653D-03 -0.21827441D-02
  0.11076080D-01 -0.93914787D-04  0.39115436D-03  0.55165670D-03 -0.53713828D-02
  0.67397376D-04  0.53039854D-02  0.54941156D-03 -0.43937261D-03 -0.17234269D-01
  0.89959513D-04 -0.35221840D-03  0.26225889D-03  0.59536192D-04 -0.41778262D-04
 -0.46970796D-03
MO    2     MO 0.0        OCC NO =    2.0000000  ORB. ENERGY =    0.000000
 -0.39389303D-01 -0.73415184D-01 -0.12448576D+00 -0.18839596D+00 -0.23500911D+00
 -0.20167278D+00 -0.77229962D-01 -0.65889204D-04 -0.70694791D-03 -0.26059431D-02
 -0.76196248D-02 -0.91820184D-02  0.11060714D-01  0.18910444D-02  0.54813304D-01
  0.89008852D-02 -0.69113922D-01 -0.67017256D-01 -0.45209445D-01 -0.46211847D+00
 -0.44809946D+00 -0.30228525D+00  0.15233958D+01  0.14771814D+01  0.99649787D+00
 -0.15598545D-01 -0.90226684D-01  0.32807895D+00 -0.25484674D-02 -0.57579663D-02
  0.38776071D-01 -0.80996754D-04 -0.19850304D-04  0.77668439D-03  0.41030942D-01
  0.35245402D-03 -0.41383396D-01 -0.25004469D-04  0.28583112D-02  0.49454508D-01
  0.48101627D-02  0.66953596D-02 -0.11505522D-01  0.54620188D-04  0.70946943D-03
  0.22402642D-02 -0.95411310D-03  0.14676337D-02 -0.51352059D-03  0.96377134D-05
  0.44695078D-04 -0.13533633D-02  0.41530882D-03 -0.16055847D-02  0.10088673D-02
 -0.90447121D-03  0.35900830D-02 -0.17445621D-01 -0.34145526D-03  0.12266710D-02
  0.14419019D-01  0.79606129D-04  0.11259256D-04 -0.29705550D-03  0.62311780D-03
 -0.15765211D-04  0.54199383D-04  0.91790553D-04 -0.18012558D-04  0.83696711D-03
 -0.19611440D-02 -0.29381823D-04 -0.12508762D-01 -0.22560068D-01 -0.33264807D-01
 -0.27301555D-01 -0.57219285D-02 -0.15391103D-03 -0.93073039D-03 -0.15573834D-01
  0.11186342D-01 -0.50799121D-03 -0.85768505D-02  0.49817188D-02 -0.79218039D-04
 -0.26563379D-03  0.11117325D-02  0.79403479D-03 -0.51485813D-02  0.43545465D-02
 -0.48570299D-03 -0.30996239D-03  0.24470526D-02  0.14743297D-03 -0.27622636D-03
  0.12879339D-03 -0.50887664D-04 -0.26432106D-04  0.70217691D-03 -0.41415138D-01
 -0.74693907D-01 -0.11013612D+00 -0.83270306D-01 -0.11187202D-01 -0.63503830D-04
 -0.10506772D-02  0.37488639D-01 -0.13420235D-01 -0.57096489D-03  0.15562909D-01
 -0.38782124D-02 -0.85865817D-04  0.79411950D-04  0.11065667D-02  0.68380399D-02
 -0.88380037D-02  0.19999638D-02  0.50232423D-03 -0.40171616D-03  0.17733951D-01
 -0.36123982D-04 -0.13844344D-03  0.17456742D-03  0.54433641D-04 -0.38197654D-04
 -0.69762455D-03
MO    3     MO 0.0        OCC NO =    2.0000000  ORB. ENERGY =    0.000000
  0.48736812D+00  0.90837405D+00  0.15402758D+01  0.23310437D+01  0.29077933D+01
  0.24953193D+01  0.95557471D+00  0.34400981D-03  0.36909995D-02  0.13605719D-01
  0.39782324D-01  0.47939635D-01 -0.57748371D-01  0.21698944D-01 -0.11975394D-01
 -0.67179626D-03  0.41653944D+00  0.40390314D+00  0.27247067D+00 -0.25044993D+00
 -0.24285219D+00 -0.16382665D+00  0.41921268D-02  0.40649528D-02  0.27421932D-02
  0.94010133D-01 -0.49391642D-01  0.92904881D-03  0.15359238D-01 -0.38524177D-02
 -0.13308961D-02  0.48815552D-03 -0.23532237D-04 -0.31664715D-04  0.13258532D-02
 -0.67020817D-03 -0.65564501D-03  0.15069826D-03 -0.17226621D-01  0.22114919D-01
  0.84146278D-03 -0.77773439D-03 -0.63728385D-04 -0.32918783D-03 -0.42758678D-02
  0.18316915D-02 -0.34183824D-04  0.96245265D-06  0.33221372D-04 -0.58085080D-04
 -0.26937066D-03 -0.39977756D-03 -0.25030051D-02 -0.12178848D-02  0.13551136D-03
  0.54511149D-02  0.17080183D-02  0.40800228D-03  0.20579006D-02  0.19456361D-02
 -0.81453636D-03 -0.47977443D-03 -0.67857881D-04 -0.66343815D-05 -0.64610246D-04
  0.95014605D-04  0.74011821D-04 -0.22646829D-03  0.10855904D-03 -0.54108676D-04
  0.42029903D-03  0.17707993D-03  0.30804940D-02  0.55557977D-02  0.81920205D-02
  0.92830950D-02  0.20132964D-02  0.43285660D-05  0.56093751D-02  0.42958669D-04
  0.14785311D-02  0.30615882D-02  0.93310606D-03  0.10710155D-02  0.47743546D-03
  0.51533011D-04  0.21156456D-04 -0.60832659D-04 -0.19059826D-03  0.25143092D-03
  0.29272604D-02  0.18680977D-02  0.27667516D-03 -0.25030604D-04  0.26888934D-04
 -0.18583295D-05  0.30669246D-03  0.15930241D-03  0.12286399D-03 -0.10337619D-01
 -0.18644322D-01 -0.27491043D-01 -0.17225797D-01 -0.13945979D-02  0.21404341D-04
  0.63322770D-02  0.93526687D-02 -0.10079930D-01  0.34411214D-02  0.28680383D-02
 -0.35635422D-02  0.51750064D-03 -0.30197771D-04 -0.93192453D-04  0.32410545D-02
 -0.20136260D-02 -0.12274286D-02 -0.30274342D-02  0.24210842D-02  0.96162377D-02
 -0.13638154D-04  0.52506105D-04 -0.38867951D-04 -0.32806354D-03  0.23021164D-03
  0.78768193D-04
MO    4     MO 0.0        OCC NO =    2.0000000  ORB. ENERGY =    0.000000
 -0.11579747D+00 -0.21582744D+00 -0.36596575D+00 -0.55385025D+00 -0.69088453D+00
 -0.59288172D+00 -0.22704220D+00 -0.35611605D-03 -0.38208915D-02 -0.14084526D-01
 -0.41182327D-01 -0.49626706D-01  0.59780627D-01  0.23184972D-01  0.19902368D-01
  0.17127951D-02  0.17149827D+01  0.16629563D+01  0.11218205D+01  0.98268367D-01
  0.95287260D-01  0.64280223D-01  0.11850718D+00  0.11491210D+00  0.77519024D-01
  0.38706000D+00  0.19535754D-01  0.25341953D-01  0.63237294D-01  0.16552257D-02
  0.42418802D-02  0.20098416D-02  0.14519736D-04  0.85171471D-04 -0.67394035D-03
  0.37180905D-02 -0.30441501D-02  0.62045723D-03 -0.70925714D-01 -0.90726341D-02
 -0.60548122D-03  0.14079064D-02 -0.80242514D-03 -0.13553373D-02 -0.17604670D-01
 -0.81922470D-03 -0.42244817D-04  0.93912373D-04 -0.51667556D-04 -0.23914880D-03
 -0.11090571D-02  0.11535367D-03 -0.10305412D-01  0.39785554D-03  0.42203573D-03
  0.22443416D-01 -0.70634929D-03 -0.55798731D-03  0.84728206D-02 -0.48721733D-03
 -0.70811989D-03 -0.19753348D-02 -0.27938553D-03  0.25813154D-05 -0.18924865D-05
  0.39119562D-03 -0.70131371D-05  0.39239997D-04  0.44696098D-03 -0.73080908D-06
 -0.33562538D-04  0.72907625D-03 -0.65792221D-03 -0.11865898D-02 -0.17496260D-02
 -0.59018224D-02 -0.18997237D-02 -0.22571610D-04  0.23095007D-01  0.75557469D-03
  0.17100956D-02  0.12605219D-01 -0.12229644D-02  0.52170089D-04  0.19657048D-02
 -0.10331318D-03  0.67331361D-04  0.15878617D-03 -0.47606870D-03  0.31728253D-03
  0.12052163D-01  0.76913611D-02  0.67910025D-04  0.37150137D-04 -0.54811460D-04
  0.17661323D-04  0.12627190D-02  0.65588239D-03 -0.28584809D-04  0.44796943D-02
  0.80793132D-02  0.11912943D-01  0.36083358D-02 -0.67811589D-03 -0.30163179D-04
  0.26071350D-01 -0.39535313D-02  0.62210966D-02  0.14167839D-01 -0.19076584D-04
  0.16175521D-02  0.21306618D-02  0.10403749D-03  0.10200014D-03 -0.10212187D-02
  0.13422774D-03  0.88699099D-03 -0.12464600D-01  0.99681258D-02 -0.34382461D-02
  0.29587936D-04 -0.62641453D-04  0.33053516D-04 -0.13507084D-02  0.94783098D-03
 -0.35142401D-04
MO    5     MO 0.0        OCC NO =    2.0000000  ORB. ENERGY =    0.000000
  0.33048769D-02  0.61597471D-02  0.10444717D-01  0.15806968D-01  0.19717947D-01
  0.16920932D-01  0.64798180D-02 -0.16625416D-02 -0.17837980D-01 -0.65754154D-01
 -0.19226129D+00 -0.23168420D+00  0.27908817D+00  0.17192545D+00  0.86900719D-01
  0.64919735D-02 -0.27925360D+00 -0.27078206D+00 -0.18266797D+00 -0.27415956D-01
 -0.26584255D-01 -0.17933581D-01  0.22134030D+00  0.21462563D+00  0.14478518D+00
 -0.63025648D-01 -0.78474933D-02  0.45319480D-01 -0.10297038D-01 -0.10709668D-02
  0.10278821D-01 -0.32726597D-03 -0.59735779D-05  0.19660041D-03 -0.16310814D-01
  0.23138632D-01 -0.68278180D-02 -0.10103012D-03  0.11548957D-01 -0.11123608D-02
 -0.43918902D-02  0.55946293D-02 -0.12027391D-02  0.22069192D-03  0.28665989D-02
  0.14677453D-02 -0.46393007D-04  0.10147943D-03 -0.55086424D-04  0.38941013D-04
  0.18058969D-03  0.14602365D-03  0.16780481D-02 -0.85561674D-03  0.23560853D-02
 -0.36545002D-02  0.10734044D-02  0.31988080D-02 -0.13796440D-02  0.14934458D-02
 -0.10267064D-01  0.32164718D-03  0.45492829D-04  0.60018092D-04 -0.27832662D-03
 -0.63699060D-04  0.24034118D-03 -0.44150764D-04 -0.72779429D-04 -0.42039546D-03
  0.87913063D-03 -0.11871675D-03  0.15843297D-01  0.28574038D-01  0.42132402D-01
  0.71560863D-02 -0.41781952D-02 -0.10985678D-03 -0.37606000D-02  0.16940177D-01
  0.16022709D-01 -0.20525296D-02 -0.55328392D-03  0.31386286D-02 -0.32007911D-03
 -0.50040507D-03  0.12142271D-03 -0.15071437D-02  0.25643451D-03  0.12507092D-02
 -0.19624745D-02 -0.12523976D-02  0.60856956D-02  0.11605010D-03 -0.21146609D-03
  0.95415989D-04 -0.20561072D-03 -0.10679846D-03 -0.19352866D-04  0.15591180D-01
  0.28119336D-01  0.41461944D-01  0.46887131D-02 -0.46348349D-02 -0.10116712D-03
 -0.42452430D-02 -0.16831547D-01  0.18704162D-01 -0.23069737D-02  0.89997293D-03
  0.25800455D-02 -0.34693934D-03  0.46834526D-03  0.64206252D-04 -0.16755825D-02
 -0.10105571D-04  0.16856881D-02  0.20296323D-02 -0.16231272D-02 -0.64954228D-02
  0.14595467D-03 -0.17677364D-03  0.30818967D-04  0.21993818D-03 -0.15433696D-03
  0.20147800D-03
END DATA
 TOTAL ENERGY =    -76.464395377206 THE VIRIAL(-V/T)=   2.00522772
