 51
GAUSSIAN              5 MOL ORBITALS    126 PRIMITIVES        3 NUCLEI   B3LYP   B3LYP   B3LYP
  O    1    (CENTRE  1)   0.00000000 -0.09448631  0.00815606  CHARGE =  8.0
  H    2    (CENTRE  2)   0.00000000 -1.44255835 -1.00281530  CHARGE =  1.0
  H    3    (CENTRE  3)   0.00000000  1.44255835 -1.09730160  CHARGE =  1.0
CENTRE ASSIGNMENTS    1  1  1  1  1  1  1  1  1  1  1  1  1  1  1  1  1  1  1  1
CENTRE ASSIGNMENTS    1  1  1  1  1  1  1  1  1  1  1  1  1  1  1  1  1  1  1  1
CENTRE ASSIGNMENTS    1  1  1  1  1  1  1  1  1  1  1  1  1  1  1  1  1  1  1  1
CENTRE ASSIGNMENTS    1  1  1  1  1  1  1  1  1  1  1  1  2  2  2  2  2  2  2  2
CENTRE ASSIGNMENTS    2  2  2  2  2  2  2  2  2  2  2  2  2  2  2  2  2  2  2  3
CENTRE ASSIGNMENTS    3  3  3  3  3  3  3  3  3  3  3  3  3  3  3  3  3  3  3  3
CENTRE ASSIGNMENTS    3  3  3  3  3  3
TYPE ASSIGNMENTS      1  1  1  1  1  1  1  1  1  1  1  1  1  1  1  1  2  2  2  3
TYPE ASSIGNMENTS      3  3  4  4  4  2  3  4  2  3  4  2  3  4  5  6  7  8  9 10
TYPE ASSIGNMENTS      5  6  7  8  9 10  5  6  7  8  9 10 11 12 13 17 14 15 18 19
TYPE ASSIGNMENTS     16 20 11 12 13 17 14 15 18 19 16 20  1  1  1  1  1  1  2  3
TYPE ASSIGNMENTS      4  2  3  4  2  3  4  5  6  7  8  9 10  5  6  7  8  9 10  1
TYPE ASSIGNMENTS      1  1  1  1  1  2  3  4  2  3  4  2  3  4  5  6  7  8  9 10
TYPE ASSIGNMENTS      5  6  7  8  9 10
EXPONENTS  0.1533000D+05 0.2299000D+04 0.5224000D+03 0.1473000D+03 0.4755000D+02
EXPONENTS  0.1676000D+02 0.6207000D+01 0.5224000D+03 0.1473000D+03 0.4755000D+02
EXPONENTS  0.1676000D+02 0.6207000D+01 0.6882000D+00 0.1752000D+01 0.2384000D+00
EXPONENTS  0.7376000D-01 0.3446000D+02 0.7749000D+01 0.2280000D+01 0.3446000D+02
EXPONENTS  0.7749000D+01 0.2280000D+01 0.3446000D+02 0.7749000D+01 0.2280000D+01
EXPONENTS  0.7156000D+00 0.7156000D+00 0.7156000D+00 0.2140000D+00 0.2140000D+00
EXPONENTS  0.2140000D+00 0.5974000D-01 0.5974000D-01 0.5974000D-01 0.2314000D+01
EXPONENTS  0.2314000D+01 0.2314000D+01 0.2314000D+01 0.2314000D+01 0.2314000D+01
EXPONENTS  0.6450000D+00 0.6450000D+00 0.6450000D+00 0.6450000D+00 0.6450000D+00
EXPONENTS  0.6450000D+00 0.2140000D+00 0.2140000D+00 0.2140000D+00 0.2140000D+00
EXPONENTS  0.2140000D+00 0.2140000D+00 0.1428000D+01 0.1428000D+01 0.1428000D+01
EXPONENTS  0.1428000D+01 0.1428000D+01 0.1428000D+01 0.1428000D+01 0.1428000D+01
EXPONENTS  0.1428000D+01 0.1428000D+01 0.5000000D+00 0.5000000D+00 0.5000000D+00
EXPONENTS  0.5000000D+00 0.5000000D+00 0.5000000D+00 0.5000000D+00 0.5000000D+00
EXPONENTS  0.5000000D+00 0.5000000D+00 0.3387000D+02 0.5095000D+01 0.1159000D+01
EXPONENTS  0.3258000D+00 0.1027000D+00 0.2526000D-01 0.1407000D+01 0.1407000D+01
EXPONENTS  0.1407000D+01 0.3880000D+00 0.3880000D+00 0.3880000D+00 0.1020000D+00
EXPONENTS  0.1020000D+00 0.1020000D+00 0.1057000D+01 0.1057000D+01 0.1057000D+01
EXPONENTS  0.1057000D+01 0.1057000D+01 0.1057000D+01 0.2470000D+00 0.2470000D+00
EXPONENTS  0.2470000D+00 0.2470000D+00 0.2470000D+00 0.2470000D+00 0.3387000D+02
EXPONENTS  0.5095000D+01 0.1159000D+01 0.3258000D+00 0.1027000D+00 0.2526000D-01
EXPONENTS  0.1407000D+01 0.1407000D+01 0.1407000D+01 0.3880000D+00 0.3880000D+00
EXPONENTS  0.3880000D+00 0.1020000D+00 0.1020000D+00 0.1020000D+00 0.1057000D+01
EXPONENTS  0.1057000D+01 0.1057000D+01 0.1057000D+01 0.1057000D+01 0.1057000D+01
EXPONENTS  0.2470000D+00 0.2470000D+00 0.2470000D+00 0.2470000D+00 0.2470000D+00
EXPONENTS  0.2470000D+00
MO    1     MO 0.0        OCC NO =    2.0000000  ORB. ENERGY =    0.000000
 -0.45248521D-01 -0.84335803D-01 -0.14300321D+00 -0.21642015D+00 -0.26996707D+00
 -0.23167191D+00 -0.88718035D-01 -0.42428942D-03 -0.45523471D-02 -0.16780809D-01
 -0.49066100D-01 -0.59127036D-01  0.71224781D-01  0.38672479D-01 -0.31161414D-01
 -0.72597751D-02 -0.12787929D+00 -0.12399989D+00 -0.83649596D-01 -0.21898083D+00
 -0.21233775D+00 -0.14324179D+00 -0.14626430D+01 -0.14182717D+01 -0.95675772D+00
 -0.28831145D-01 -0.35615425D-01 -0.31557955D+00 -0.47012867D-02  0.93071484D-03
 -0.35851560D-01 -0.14918776D-03  0.33300100D-04 -0.71894078D-03 -0.45945136D-01
  0.80210731D-02  0.37924063D-01  0.64615003D-03  0.53093598D-02  0.28863948D-01
 -0.61067566D-02 -0.49116378D-02  0.11018394D-01 -0.85996761D-04  0.12950199D-02
 -0.28669481D-02  0.96702651D-03 -0.15182990D-02  0.55127248D-03 -0.29860847D-04
  0.82036844D-04 -0.16734705D-02  0.76261874D-03 -0.26851294D-03 -0.41086759D-03
 -0.16673547D-02  0.56446317D-04  0.18365319D-01 -0.62050155D-03  0.74909251D-03
 -0.17132716D-01 -0.96085503D-04  0.19151563D-04 -0.36315135D-03 -0.72415640D-03
 -0.23656665D-04 -0.46986594D-03 -0.10573927D-03 -0.33798025D-04  0.15593200D-02
  0.22782085D-02  0.11616271D-03  0.39584789D-01  0.71392797D-01  0.10526864D+00
  0.73764849D-01  0.79815926D-02  0.51914435D-04 -0.20960792D-02  0.42887265D-01
  0.12218106D-01 -0.11359529D-02  0.14521973D-01  0.11061219D-02 -0.16692055D-03
 -0.12605889D-03 -0.12453174D-02 -0.64037912D-02  0.98685696D-02 -0.34647784D-02
 -0.10311451D-02 -0.75527512D-03  0.15852693D-01  0.20305418D-03  0.45385609D-04
 -0.24843979D-03 -0.11150622D-03 -0.73442200D-04 -0.12042966D-02  0.24795035D-01
  0.44718867D-01  0.65937944D-01  0.43076021D-01  0.68842248D-02  0.10894076D-03
 -0.16116392D-02 -0.23281082D-01 -0.65792246D-03 -0.88237784D-03 -0.10019738D-01
 -0.12481122D-02 -0.14028363D-03 -0.20062618D-03 -0.97297542D-03 -0.24972287D-02
  0.57228686D-02 -0.32256400D-02  0.82561449D-03 -0.57572783D-03 -0.37527300D-02
 -0.21206599D-03  0.26261635D-03 -0.50550362D-04  0.85017636D-04 -0.46790419D-04
  0.33379673D-03
MO    2     MO 0.0        OCC NO =    2.0000000  ORB. ENERGY =    0.000000
 -0.45779340D-01 -0.85325162D-01 -0.14468080D+00 -0.21895901D+00 -0.27313411D+00
 -0.23438970D+00 -0.89758803D-01  0.22785844D-03  0.24447715D-02  0.90118880D-02
  0.26350232D-01  0.31753311D-01 -0.38250228D-01 -0.28409068D-01 -0.18761221D-01
 -0.17484442D-02  0.17016465D+01  0.16500247D+01  0.11130969D+01 -0.36205586D+00
 -0.35107239D+00 -0.23683136D+00 -0.15048956D+00 -0.14592425D+00 -0.98439636D-01
  0.38364630D+00 -0.73752882D-01 -0.30412183D-01  0.62558433D-01 -0.62337278D-02
 -0.34165420D-02  0.19851911D-02 -0.51683235D-04 -0.67921052D-04 -0.11422965D-02
 -0.25283547D-02  0.36706513D-02 -0.85981000D-02 -0.70649857D-01  0.33357288D-01
  0.55970867D-03 -0.15915469D-02  0.10318382D-02  0.11443298D-02 -0.17232392D-01
  0.40083232D-02  0.19811570D-03 -0.22955088D-03  0.31435181D-04  0.39734820D-03
 -0.10916366D-02 -0.45162817D-03 -0.10147910D-01 -0.17669725D-02 -0.51730872D-03
  0.22186925D-01  0.35540423D-02  0.56286624D-03  0.82568045D-02  0.17468752D-02
  0.98905992D-03  0.12785773D-02 -0.25484338D-03 -0.48777662D-04 -0.64288590D-04
  0.31479125D-03  0.17750260D-03 -0.11093140D-03  0.44973889D-03 -0.31169616D-04
  0.30379717D-03 -0.15457379D-02  0.96190451D-02  0.17348344D-01  0.25580123D-01
  0.22748686D-01  0.31867964D-02 -0.32696518D-05  0.27891818D-01  0.67706914D-02
  0.59963180D-02  0.15115741D-01  0.32309763D-02  0.25409136D-02  0.22211553D-02
 -0.40257508D-04 -0.83263621D-04 -0.21890162D-02  0.18312411D-02  0.35777504D-03
  0.13721100D-01  0.10050191D-01  0.60584491D-02  0.38278497D-04 -0.62192605D-04
  0.23914109D-04  0.14837756D-02  0.97727053D-03 -0.73648824D-04 -0.90425511D-02
 -0.16308613D-01 -0.24047041D-01 -0.13231737D-01 -0.88198778D-03  0.51341540D-04
  0.21445538D-01  0.52332549D-02 -0.79371865D-02  0.11741504D-01  0.89286552D-03
 -0.28674155D-02  0.18667069D-02 -0.11150383D-03 -0.14511854D-03  0.14886354D-02
 -0.46348278D-03 -0.10251526D-02 -0.10986173D-01  0.76610157D-02  0.48416813D-02
  0.28849364D-05  0.53329127D-04 -0.56214064D-04 -0.11313010D-02  0.62262429D-03
  0.24137870D-03
MO    3     MO 0.0        OCC NO =    2.0000000  ORB. ENERGY =    0.000000
 -0.10678448D+00 -0.19902870D+00 -0.33748114D+00 -0.51074181D+00 -0.63711016D+00
 -0.54673530D+00 -0.20937057D+00 -0.28068606D-04 -0.30115772D-03 -0.11101241D-02
 -0.32459377D-02 -0.39115127D-02  0.47118316D-02 -0.11596483D-01  0.34555032D-02
 -0.63452280D-03  0.37095423D+00  0.35970082D+00  0.24265205D+00  0.13901523D+01
  0.13479802D+01  0.90933945D+00 -0.19403159D+00 -0.18814537D+00 -0.12692175D+00
  0.83633834D-01  0.28547468D+00 -0.49247658D-01  0.13637566D-01  0.25326993D-01
 -0.92659447D-02  0.43276617D-03  0.23206309D-03 -0.17993722D-03 -0.35257403D-02
 -0.33096602D-02  0.68354005D-02 -0.18743621D-02 -0.15401474D-01 -0.12872200D+00
 -0.22811712D-02  0.77458664D-03  0.15065845D-02  0.24946074D-03 -0.37566138D-02
 -0.16033729D-01 -0.37755247D-03  0.22590399D-03  0.15164848D-03  0.86620811D-04
 -0.23797376D-03  0.12856150D-02 -0.22122163D-02  0.69087627D-02 -0.19245727D-04
  0.48366884D-02 -0.14585036D-01  0.30464232D-02  0.17999606D-02 -0.61412522D-02
 -0.29886860D-02  0.27872632D-03 -0.55555153D-04  0.68208406D-04  0.24105455D-03
  0.68623622D-04 -0.58961639D-03  0.63284014D-03  0.98041836D-04  0.38499117D-03
 -0.13560038D-02 -0.33696659D-03 -0.33573648D-01 -0.60551457D-01 -0.89283088D-01
 -0.63381686D-01 -0.59535721D-02  0.11947497D-03  0.60803392D-02 -0.20835920D-01
 -0.32194199D-01  0.32951898D-02 -0.53164510D-02 -0.11195968D-01  0.48420572D-03
  0.51633438D-03 -0.22028586D-03  0.65643442D-02 -0.25515507D-02 -0.40127935D-02
  0.29911618D-02  0.21909138D-02 -0.20596731D-01 -0.20801695D-03  0.43356506D-03
 -0.22554812D-03  0.32345899D-03  0.21304228D-03  0.88688775D-05  0.39031994D-01
  0.70395809D-01  0.10379858D+00  0.70431091D-01  0.95757724D-02 -0.97854930D-04
  0.46750681D-02 -0.22390762D-01  0.22060530D-01  0.25596154D-02 -0.89289249D-02
  0.92430524D-02  0.40693695D-03  0.43003338D-04  0.85164924D-04 -0.68477969D-02
  0.51396393D-02  0.17081576D-02 -0.23949554D-02  0.16700803D-02 -0.19290685D-01
 -0.17676354D-03  0.38418553D-04  0.13834499D-03 -0.24662048D-03  0.13573037D-03
 -0.84774199D-03
MO    4     MO 0.0        OCC NO =    2.0000000  ORB. ENERGY =    0.000000
  0.48936163D+00  0.91208961D+00  0.15465761D+01  0.23405785D+01  0.29196872D+01
  0.25055260D+01  0.95948333D+00  0.60540437D-03  0.64955916D-02  0.23943974D-01
  0.70010774D-01  0.84366387D-01 -0.10162825D+00 -0.52677481D-02 -0.33990937D-01
 -0.32385672D-02  0.18161041D+00  0.17610101D+00  0.11879670D+00  0.24258018D+00
  0.23522117D+00  0.15867881D+00 -0.32921240D+00 -0.31922529D+00 -0.21534749D+00
  0.40945145D-01  0.46467656D-01 -0.71585832D-01  0.66766292D-02  0.33651417D-02
 -0.11088928D-01  0.21187207D-03  0.96090573D-05 -0.22278696D-03 -0.41509656D-02
 -0.50443036D-02  0.91952693D-02 -0.91764328D-03 -0.75401968D-02 -0.18927079D-01
  0.36555233D-03 -0.27577877D-02  0.23922354D-02  0.12213007D-03 -0.18391492D-02
 -0.85363595D-03  0.86302911D-04 -0.23297964D-03  0.14667673D-03  0.42407498D-04
 -0.11650632D-03  0.37122687D-03 -0.10830487D-02  0.11571542D-02 -0.31100459D-03
  0.23679281D-02 -0.10442346D-02  0.34610576D-02  0.88121807D-03 -0.24272281D-02
 -0.25280438D-02  0.13645781D-03 -0.27198487D-04 -0.30115676D-04 -0.11510582D-03
  0.33596501D-04 -0.41320400D-04 -0.16556439D-03  0.47998961D-04  0.13166743D-03
  0.51088185D-03 -0.16497086D-03 -0.78468691D-02 -0.14152152D-01 -0.20867339D-01
 -0.85189623D-02  0.56010778D-03  0.43341840D-04  0.29767901D-02 -0.81615675D-02
 -0.13865701D-01  0.16132469D-02 -0.10140537D-02 -0.46019339D-02  0.23705566D-03
  0.74769060D-04 -0.37040486D-03  0.31665596D-02 -0.12593138D-02 -0.19072457D-02
  0.14644020D-02  0.10726195D-02 -0.10262579D-01 -0.32594088D-04  0.11468252D-03
 -0.82088427D-04  0.15835786D-03  0.10430045D-03 -0.21172666D-03  0.57907514D-02
  0.10443859D-01  0.15399463D-01  0.18378162D-01  0.46781142D-02  0.52685830D-04
  0.22888026D-02 -0.23401854D-02 -0.11033667D-02  0.12531271D-02 -0.35749398D-02
  0.73040871D-03  0.19922670D-03 -0.25377506D-03 -0.14530976D-03 -0.75167780D-03
  0.13956917D-02 -0.64401391D-03 -0.11725134D-02  0.81763175D-03 -0.11978572D-02
 -0.11122619D-03  0.14526281D-03 -0.34036624D-04 -0.12073955D-03  0.66450378D-04
 -0.14602928D-03
MO    5     MO 0.0        OCC NO =    2.0000000  ORB. ENERGY =    0.000000
  0.65467287D-01  0.12202026D+00  0.20690250D+00  0.31312493D+00  0.39059867D+00
  0.33519177D+00  0.12836064D+00 -0.15513294D-02 -0.16644746D-01 -0.61355668D-01
 -0.17940038D+00 -0.21618618D+00  0.26041916D+00  0.16771840D+00  0.94052814D-01
  0.82228980D-02  0.34907345D+00  0.33848383D+00  0.22833919D+00  0.81214943D-01
  0.78751175D-01  0.53125078D-01  0.57524716D+00  0.55779625D+00  0.37628605D+00
  0.78700683D-01  0.18935289D-01  0.12222085D+00  0.12833152D-01  0.20635197D-02
  0.19136891D-01  0.40723941D-03  0.12533461D-04  0.37484628D-03 -0.53567513D-02
  0.21405024D-01 -0.16048273D-01 -0.17638026D-02 -0.14493016D-01 -0.53968201D-02
 -0.27316084D-02  0.65707093D-02 -0.38391008D-02  0.23474627D-03 -0.35350295D-02
 -0.31069785D-02 -0.25518709D-03  0.44393791D-03 -0.18875081D-03  0.81511472D-04
 -0.22393684D-03  0.29180900D-04 -0.20817285D-02  0.57133887D-03  0.25534914D-02
  0.45513957D-02 -0.12618562D-02 -0.10539417D-02  0.16937897D-02 -0.45216040D-03
 -0.66065325D-02  0.26228562D-03 -0.52278225D-04  0.47926655D-04 -0.14817496D-03
  0.64575850D-04 -0.38933894D-03 -0.84344305D-04  0.92258826D-04  0.24555898D-03
  0.52886917D-03 -0.31709058D-03  0.73715731D-02  0.13294936D-01  0.19603375D-01
 -0.12084531D-01 -0.65755188D-02 -0.11455613D-03  0.57216897D-02  0.90939833D-02
  0.16671445D-01  0.31008226D-02 -0.42529650D-02  0.23108730D-02  0.45564479D-03
 -0.43753410D-03  0.37648319D-03 -0.29830988D-03 -0.19449382D-02  0.22432481D-02
  0.28147278D-02  0.20616825D-02  0.35010638D-02  0.12580203D-03 -0.20060714D-03
  0.74805112D-04  0.30437973D-03  0.20047595D-03  0.18567694D-04  0.86722509D-02
  0.15640762D-01  0.23062294D-01 -0.41255146D-02 -0.57884274D-02 -0.13378983D-03
  0.43993086D-02 -0.90278075D-02  0.15581496D-01  0.24086362D-02  0.33254042D-02
  0.33182717D-02  0.38293373D-03  0.55638743D-03  0.33607404D-03 -0.50345629D-03
 -0.18320582D-02  0.23355145D-02 -0.22536886D-02  0.15715704D-02 -0.38536928D-02
  0.15395907D-03 -0.28016136D-03  0.12620228D-03 -0.23207354D-03  0.12772430D-03
 -0.77524133D-04
END DATA
 TOTAL ENERGY =    -76.459164065394 THE VIRIAL(-V/T)=   2.00484618
