 51
GAUSSIAN              5 MOL ORBITALS    126 PRIMITIVES        3 NUCLEI   B3LYP   B3LYP   B3LYP
  O    1    (CENTRE  1)   0.00000000  0.09448631  0.00815606  CHARGE =  8.0
  H    2    (CENTRE  2)   0.00000000 -1.44255835 -1.19178791  CHARGE =  1.0
  H    3    (CENTRE  3)   0.00000000  1.44255835 -1.09730160  CHARGE =  1.0
CENTRE ASSIGNMENTS    1  1  1  1  1  1  1  1  1  1  1  1  1  1  1  1  1  1  1  1
CENTRE ASSIGNMENTS    1  1  1  1  1  1  1  1  1  1  1  1  1  1  1  1  1  1  1  1
CENTRE ASSIGNMENTS    1  1  1  1  1  1  1  1  1  1  1  1  1  1  1  1  1  1  1  1
CENTRE ASSIGNMENTS    1  1  1  1  1  1  1  1  1  1  1  1  2  2  2  2  2  2  2  2
CENTRE ASSIGNMENTS    2  2  2  2  2  2  2  2  2  2  2  2  2  2  2  2  2  2  2  3
CENTRE ASSIGNMENTS    3  3  3  3  3  3  3  3  3  3  3  3  3  3  3  3  3  3  3  3
CENTRE ASSIGNMENTS    3  3  3  3  3  3
TYPE ASSIGNMENTS      1  1  1  1  1  1  1  1  1  1  1  1  1  1  1  1  2  2  2  3
TYPE ASSIGNMENTS      3  3  4  4  4  2  3  4  2  3  4  2  3  4  5  6  7  8  9 10
TYPE ASSIGNMENTS      5  6  7  8  9 10  5  6  7  8  9 10 11 12 13 17 14 15 18 19
TYPE ASSIGNMENTS     16 20 11 12 13 17 14 15 18 19 16 20  1  1  1  1  1  1  2  3
TYPE ASSIGNMENTS      4  2  3  4  2  3  4  5  6  7  8  9 10  5  6  7  8  9 10  1
TYPE ASSIGNMENTS      1  1  1  1  1  2  3  4  2  3  4  2  3  4  5  6  7  8  9 10
TYPE ASSIGNMENTS      5  6  7  8  9 10
EXPONENTS  0.1533000D+05 0.2299000D+04 0.5224000D+03 0.1473000D+03 0.4755000D+02
EXPONENTS  0.1676000D+02 0.6207000D+01 0.5224000D+03 0.1473000D+03 0.4755000D+02
EXPONENTS  0.1676000D+02 0.6207000D+01 0.6882000D+00 0.1752000D+01 0.2384000D+00
EXPONENTS  0.7376000D-01 0.3446000D+02 0.7749000D+01 0.2280000D+01 0.3446000D+02
EXPONENTS  0.7749000D+01 0.2280000D+01 0.3446000D+02 0.7749000D+01 0.2280000D+01
EXPONENTS  0.7156000D+00 0.7156000D+00 0.7156000D+00 0.2140000D+00 0.2140000D+00
EXPONENTS  0.2140000D+00 0.5974000D-01 0.5974000D-01 0.5974000D-01 0.2314000D+01
EXPONENTS  0.2314000D+01 0.2314000D+01 0.2314000D+01 0.2314000D+01 0.2314000D+01
EXPONENTS  0.6450000D+00 0.6450000D+00 0.6450000D+00 0.6450000D+00 0.6450000D+00
EXPONENTS  0.6450000D+00 0.2140000D+00 0.2140000D+00 0.2140000D+00 0.2140000D+00
EXPONENTS  0.2140000D+00 0.2140000D+00 0.1428000D+01 0.1428000D+01 0.1428000D+01
EXPONENTS  0.1428000D+01 0.1428000D+01 0.1428000D+01 0.1428000D+01 0.1428000D+01
EXPONENTS  0.1428000D+01 0.1428000D+01 0.5000000D+00 0.5000000D+00 0.5000000D+00
EXPONENTS  0.5000000D+00 0.5000000D+00 0.5000000D+00 0.5000000D+00 0.5000000D+00
EXPONENTS  0.5000000D+00 0.5000000D+00 0.3387000D+02 0.5095000D+01 0.1159000D+01
EXPONENTS  0.3258000D+00 0.1027000D+00 0.2526000D-01 0.1407000D+01 0.1407000D+01
EXPONENTS  0.1407000D+01 0.3880000D+00 0.3880000D+00 0.3880000D+00 0.1020000D+00
EXPONENTS  0.1020000D+00 0.1020000D+00 0.1057000D+01 0.1057000D+01 0.1057000D+01
EXPONENTS  0.1057000D+01 0.1057000D+01 0.1057000D+01 0.2470000D+00 0.2470000D+00
EXPONENTS  0.2470000D+00 0.2470000D+00 0.2470000D+00 0.2470000D+00 0.3387000D+02
EXPONENTS  0.5095000D+01 0.1159000D+01 0.3258000D+00 0.1027000D+00 0.2526000D-01
EXPONENTS  0.1407000D+01 0.1407000D+01 0.1407000D+01 0.3880000D+00 0.3880000D+00
EXPONENTS  0.3880000D+00 0.1020000D+00 0.1020000D+00 0.1020000D+00 0.1057000D+01
EXPONENTS  0.1057000D+01 0.1057000D+01 0.1057000D+01 0.1057000D+01 0.1057000D+01
EXPONENTS  0.2470000D+00 0.2470000D+00 0.2470000D+00 0.2470000D+00 0.2470000D+00
EXPONENTS  0.2470000D+00
MO    1     MO 0.0        OCC NO =    2.0000000  ORB. ENERGY =    0.000000
 -0.10123268D+00 -0.18868107D+00 -0.31993526D+00 -0.48418800D+00 -0.60398636D+00
 -0.51831016D+00 -0.19848525D+00 -0.62057200D-03 -0.66583303D-02 -0.24543859D-01
 -0.71764805D-01 -0.86480079D-01  0.10417442D+00  0.51404790D-01 -0.14754604D-01
 -0.61114383D-02  0.10172563D+00  0.98639639D-01  0.66541718D-01 -0.40974361D-01
 -0.39731348D-01 -0.26802532D-01 -0.13492227D+01 -0.13082922D+01 -0.88256619D+00
  0.22956749D-01 -0.17110252D-01 -0.29421606D+00  0.37917619D-02 -0.53680625D-02
 -0.33833534D-01  0.12237457D-03 -0.70665404D-04 -0.63710781D-03 -0.44658571D-01
  0.69682889D-02  0.37690282D-01  0.46344466D-03 -0.41505647D-02 -0.45447183D-02
 -0.73642260D-02 -0.35581247D-02  0.10922351D-01 -0.38831466D-04 -0.10781857D-02
  0.54189763D-02  0.61654953D-03 -0.11307476D-02  0.51419803D-03 -0.21295452D-04
 -0.74806882D-04  0.12979043D-02 -0.60083031D-03 -0.86292593D-03 -0.93419632D-03
  0.12063646D-02  0.27890078D-02  0.18475611D-01  0.59612633D-03 -0.20022996D-03
 -0.15673022D-01 -0.10349463D-03 -0.25249324D-04  0.27850743D-03 -0.65436794D-03
  0.39729938D-04  0.57818088D-03  0.45416027D-03  0.36018034D-04 -0.14137032D-02
  0.15089436D-02  0.85616863D-04  0.31718416D-01  0.57205469D-01  0.84349430D-01
  0.52789944D-01  0.81593721D-02  0.78238261D-04  0.12043459D-02  0.25540000D-01
  0.61484101D-02  0.66015869D-03  0.10677980D-01  0.15105860D-02  0.10600386D-03
  0.22573848D-03 -0.73071688D-03 -0.35936756D-02  0.55444849D-02 -0.19508093D-02
  0.61789191D-03  0.45841179D-03  0.76742471D-02 -0.29163375D-03  0.27946125D-03
  0.12172505D-04  0.59564961D-04  0.33551343D-04  0.15503021D-03  0.33179901D-01
  0.59841317D-01  0.88235987D-01  0.58037908D-01  0.64279756D-02  0.64361566D-04
  0.15533337D-02 -0.35953998D-01  0.10007603D-01  0.84126344D-03 -0.12671135D-01
  0.11124289D-02  0.12626576D-03 -0.55042250D-04 -0.98716601D-03 -0.52803492D-02
  0.78960117D-02 -0.26156625D-02 -0.74746465D-03  0.59313077D-03 -0.13496338D-01
  0.62171488D-04  0.16519685D-03 -0.22736834D-03 -0.79132753D-04  0.55423587D-04
  0.73989975D-03
MO    2     MO 0.0        OCC NO =    2.0000000  ORB. ENERGY =    0.000000
  0.48104047D+00  0.89658035D+00  0.15202780D+01  0.23007791D+01  0.28700405D+01
  0.24629218D+01  0.94316819D+00  0.51638539D-03  0.55404763D-02  0.20423239D-01
  0.59716353D-01  0.71961109D-01 -0.86684781D-01  0.37367871D-02 -0.38867990D-01
 -0.41476211D-02 -0.18986957D+00 -0.18410961D+00 -0.12419926D+00  0.26501688D+00
  0.25697722D+00  0.17335532D+00 -0.46512340D+00 -0.45101324D+00 -0.30425087D+00
 -0.42848477D-01  0.56807239D-01 -0.97546654D-01 -0.70772746D-02  0.57456470D-02
 -0.12344358D-01 -0.22841056D-03  0.75916281D-04 -0.23411728D-03 -0.95329197D-02
 -0.27138828D-02  0.12246802D-01 -0.86501349D-03  0.77469754D-02 -0.28290808D-01
  0.28445010D-03 -0.36425178D-02  0.33580677D-02  0.72478430D-04  0.20124197D-02
 -0.47362492D-02  0.34946621D-03 -0.49605121D-03  0.14658499D-03  0.39747686D-04
  0.13962608D-03  0.16399842D-03  0.11214420D-02  0.10202959D-02 -0.80280936D-03
 -0.22516640D-02 -0.38417364D-02  0.47741856D-02 -0.11126621D-02  0.78084869D-03
 -0.23657575D-02  0.19317139D-03  0.47127538D-04  0.83667928D-04 -0.30302567D-03
 -0.74155417D-04 -0.18009483D-03 -0.34726310D-03 -0.67227196D-04 -0.70908958D-04
  0.12563401D-02 -0.15980277D-03 -0.29646834D-02 -0.53469286D-02 -0.78840430D-02
  0.21070998D-02  0.25285080D-02  0.10488282D-03 -0.22478962D-02 -0.48519207D-03
 -0.74059911D-02 -0.12321777D-02  0.25501345D-02 -0.19663675D-02 -0.19785485D-03
  0.33374749D-03 -0.24913559D-03  0.69692339D-03  0.99132079D-03 -0.16882442D-02
 -0.11532873D-02 -0.85561970D-03 -0.32099000D-02 -0.78211666D-04  0.15764507D-03
 -0.79433402D-04 -0.11117723D-03 -0.62623149D-04 -0.11730293D-03  0.10164087D-01
  0.18331350D-01  0.27029565D-01  0.25236219D-01  0.41742489D-02  0.14972482D-04
 -0.28992773D-02 -0.56862444D-02  0.55162696D-03 -0.15702074D-02 -0.34448940D-02
  0.48836280D-03 -0.23567342D-03  0.73509130D-04 -0.37130463D-03 -0.59868586D-03
  0.11875541D-02 -0.58886829D-03  0.13951331D-02 -0.11070709D-02 -0.82047794D-03
  0.21235706D-04 -0.16055656D-04 -0.51800504D-05  0.14770026D-03 -0.10344741D-03
  0.22351314D-03
MO    3     MO 0.0        OCC NO =    2.0000000  ORB. ENERGY =    0.000000
 -0.10071686D+00 -0.18771967D+00 -0.31830508D+00 -0.48172089D+00 -0.60090884D+00
 -0.51566919D+00 -0.19747390D+00  0.42879334D-04  0.46006712D-03  0.16958940D-02
  0.49586946D-02  0.59754682D-02 -0.71980846D-02 -0.14245974D-01 -0.14337481D-01
 -0.11339280D-02 -0.49425602D-02 -0.47926208D-02 -0.32330737D-02  0.14366554D+01
  0.13930724D+01  0.93975843D+00 -0.73877270D-01 -0.71636101D-01 -0.48325291D-01
 -0.11154035D-02  0.30019482D+00 -0.87788314D-02 -0.18423097D-03  0.29940956D-01
  0.23125222D-02 -0.59458340D-05  0.32286316D-03  0.41113816D-04 -0.24132965D-02
  0.18476507D-02  0.56564574D-03 -0.22517464D-04  0.20166419D-03 -0.13421712D+00
  0.13952835D-02 -0.16823332D-02  0.28704971D-03  0.18867110D-05  0.52385991D-04
 -0.19331606D-01  0.50105465D-03 -0.39141387D-03 -0.10964077D-03  0.10346857D-05
  0.36346546D-05  0.62712957D-03  0.29192644D-04  0.63668323D-02 -0.55503480D-03
 -0.58613840D-04 -0.15646976D-01 -0.99443023D-03 -0.28964091D-04 -0.34535213D-02
  0.26595346D-02  0.50285109D-05  0.12267932D-05  0.97021139D-04 -0.23657186D-03
 -0.19303652D-05 -0.96852782D-03 -0.50089326D-03 -0.17500143D-05  0.67746440D-03
  0.12106088D-02 -0.41598810D-05 -0.34942964D-01 -0.63021074D-01 -0.92924537D-01
 -0.60662446D-01 -0.82642918D-02  0.14264523D-03 -0.58515760D-04 -0.15189026D-01
 -0.22007174D-01 -0.32075242D-04 -0.53717259D-02 -0.92736338D-02 -0.51504277D-05
  0.23043073D-03 -0.23252165D-03  0.53439401D-02 -0.20187918D-02 -0.33251483D-02
 -0.30021619D-04 -0.22272931D-04 -0.15843831D-01  0.22697898D-03  0.76014107D-05
 -0.23458039D-03 -0.28940928D-05 -0.16301648D-05 -0.97680582D-03  0.38023840D-01
  0.68577561D-01  0.10111757D+00  0.73030852D-01  0.79915915D-02 -0.11763843D-03
 -0.75472087D-04 -0.21984973D-01  0.31921078D-01 -0.40874609D-04 -0.74029163D-02
  0.11974632D-01 -0.61348960D-05  0.51024776D-03  0.84394793D-04 -0.77530071D-02
  0.29887308D-02  0.47642763D-02  0.36317191D-04 -0.28818545D-04 -0.22976946D-01
  0.73369492D-04 -0.33234796D-03  0.25897847D-03  0.38448365D-05 -0.26928752D-05
 -0.10093762D-03
MO    4     MO 0.0        OCC NO =    2.0000000  ORB. ENERGY =    0.000000
  0.22995672D-01  0.42860151D-01  0.72675409D-01  0.10998650D+00  0.13719949D+00
  0.11773758D+00  0.45087237D-01  0.74763158D-03  0.80215962D-02  0.29569114D-01
  0.86458355D-01  0.10418652D+00 -0.12550371D+00 -0.74632821D-01 -0.45387552D-01
 -0.39737011D-02  0.16066861D+01  0.15579450D+01  0.10509805D+01 -0.29853746D-01
 -0.28948091D-01 -0.19528211D-01 -0.28457106D+00 -0.27593821D+00 -0.18614628D+00
  0.36258601D+00 -0.55372900D-02 -0.60259028D-01  0.59888262D-01 -0.44401301D-03
 -0.92358349D-02  0.19328219D-02 -0.89777638D-05 -0.16967883D-03  0.14179220D-02
 -0.86284993D-02  0.72105773D-02  0.73197886D-02 -0.65555304D-01  0.36419862D-02
  0.13489442D-02 -0.31581658D-02  0.18092216D-02 -0.61331620D-03 -0.17029199D-01
 -0.45925777D-03  0.12943005D-03 -0.22595976D-03  0.96529713D-04 -0.33634696D-03
 -0.11815231D-02 -0.24344272D-04 -0.94897000D-02 -0.93022752D-04 -0.12278060D-02
  0.19053696D-01  0.13829996D-03  0.89321795D-03  0.94154040D-02  0.14076829D-03
  0.27901999D-02 -0.16346262D-02 -0.39879565D-03  0.75904629D-05 -0.11553752D-04
  0.62750695D-03 -0.12320445D-03 -0.15300825D-04  0.56887998D-03  0.10043306D-03
  0.49962082D-04  0.13522593D-02 -0.14767375D-02 -0.26633568D-02 -0.39271181D-02
  0.62285498D-02  0.33489705D-02  0.59355463D-04  0.19021813D-01 -0.27415908D-02
 -0.58130635D-02  0.10426751D-01  0.19774065D-02 -0.89254365D-03  0.16742579D-02
  0.25667740D-03 -0.13061606D-03 -0.44436571D-04  0.94444235D-03 -0.90000578D-03
  0.97591763D-02  0.72402978D-02 -0.65291543D-03 -0.76126626D-04  0.11895487D-03
 -0.42828245D-04  0.94078745D-03  0.52992030D-03  0.29565992D-04 -0.42834309D-02
 -0.77253440D-02 -0.11391015D-01  0.35227424D-02  0.29250558D-02  0.62853120D-04
  0.24533834D-01  0.45374944D-02 -0.87978025D-02  0.13287175D-01 -0.16663612D-02
 -0.14317738D-02  0.19942806D-02 -0.22067887D-03 -0.16186383D-03  0.50277768D-03
  0.68111195D-03 -0.11838896D-02 -0.11805688D-01  0.93680912D-02  0.24088800D-02
 -0.53890576D-04  0.89724063D-04 -0.35833488D-04 -0.12498472D-02  0.87537730D-03
  0.10483745D-04
MO    5     MO 0.0        OCC NO =    2.0000000  ORB. ENERGY =    0.000000
  0.83734581D-01  0.15606749D+00  0.26463436D+00  0.40049597D+00  0.49958715D+00
  0.42872010D+00  0.16417702D+00 -0.13564652D-02 -0.14553982D-01 -0.53648718D-01
 -0.15686570D+00 -0.18903080D+00  0.22770763D+00  0.15043853D+00  0.87368275D-01
  0.81050416D-02  0.76656837D+00  0.74331346D+00  0.50143487D+00  0.14291372D+00
  0.13857823D+00  0.93484057D-01  0.65980933D+00  0.63979310D+00  0.43160065D+00
  0.17299395D+00  0.29882442D-01  0.14112521D+00  0.28573377D-01  0.32591581D-02
  0.20804976D-01  0.92217153D-03  0.49079631D-04  0.38246067D-03  0.57767361D-03
  0.16499878D-01 -0.17077551D-01  0.34923552D-02 -0.31277189D-01 -0.14902981D-01
 -0.17706112D-02  0.61784639D-02 -0.44078526D-02 -0.29262020D-03 -0.81248264D-02
 -0.10542868D-02 -0.26330704D-03  0.49826317D-03 -0.23495613D-03 -0.16047500D-03
 -0.56371823D-03 -0.76547099D-04 -0.45276449D-02  0.60324904D-03  0.24949608D-02
  0.90907372D-02 -0.17124150D-02 -0.31478032D-02  0.44921974D-02 -0.97332173D-04
 -0.43370793D-02 -0.77989893D-03 -0.19026998D-03 -0.31518790D-04  0.34471312D-04
  0.29939077D-03  0.13065178D-03 -0.11744093D-03  0.27141917D-03 -0.36095412D-04
  0.14026998D-04  0.64517843D-03 -0.20735698D-02 -0.37397686D-02 -0.55142866D-02
 -0.19929296D-01 -0.75290368D-02 -0.10789037D-03  0.90755254D-02  0.21388924D-02
  0.93916908D-02  0.49747226D-02 -0.49645314D-02  0.11234266D-02  0.79880767D-03
 -0.48378722D-03  0.30752523D-03  0.77710200D-03 -0.24827464D-02  0.17056445D-02
  0.46562151D-02  0.34544293D-02 -0.54712522D-03  0.18034928D-03 -0.24731249D-03
  0.66963205D-04  0.44886050D-03  0.25283106D-03 -0.11789423D-03  0.73374650D-02
  0.13233420D-01  0.19512670D-01 -0.83636823D-02 -0.58983315D-02 -0.13732770D-03
  0.11705374D-01 -0.62893188D-02  0.17454132D-01  0.63394640D-02  0.42731067D-02
  0.30514682D-02  0.95149417D-03  0.49133249D-03  0.37883394D-03 -0.55135458D-03
 -0.21619825D-02  0.27133371D-02 -0.56326295D-02  0.44696239D-02 -0.36092529D-02
  0.11043431D-03 -0.21609851D-03  0.10566420D-03 -0.59631646D-03  0.41765256D-03
 -0.65449345D-04
END DATA
 TOTAL ENERGY =    -76.460494396460 THE VIRIAL(-V/T)=   2.00629291
