 51
GAUSSIAN              5 MOL ORBITALS    126 PRIMITIVES        3 NUCLEI   B3LYP   B3LYP   B3LYP
  O    1    (CENTRE  1)   0.00000000 -0.09448631  0.00815606  CHARGE =  8.0
  H    2    (CENTRE  2)   0.00000000 -1.44255835 -1.19178791  CHARGE =  1.0
  H    3    (CENTRE  3)   0.00000000  1.44255835 -1.09730160  CHARGE =  1.0
CENTRE ASSIGNMENTS    1  1  1  1  1  1  1  1  1  1  1  1  1  1  1  1  1  1  1  1
CENTRE ASSIGNMENTS    1  1  1  1  1  1  1  1  1  1  1  1  1  1  1  1  1  1  1  1
CENTRE ASSIGNMENTS    1  1  1  1  1  1  1  1  1  1  1  1  1  1  1  1  1  1  1  1
CENTRE ASSIGNMENTS    1  1  1  1  1  1  1  1  1  1  1  1  2  2  2  2  2  2  2  2
CENTRE ASSIGNMENTS    2  2  2  2  2  2  2  2  2  2  2  2  2  2  2  2  2  2  2  3
CENTRE ASSIGNMENTS    3  3  3  3  3  3  3  3  3  3  3  3  3  3  3  3  3  3  3  3
CENTRE ASSIGNMENTS    3  3  3  3  3  3
TYPE ASSIGNMENTS      1  1  1  1  1  1  1  1  1  1  1  1  1  1  1  1  2  2  2  3
TYPE ASSIGNMENTS      3  3  4  4  4  2  3  4  2  3  4  2  3  4  5  6  7  8  9 10
TYPE ASSIGNMENTS      5  6  7  8  9 10  5  6  7  8  9 10 11 12 13 17 14 15 18 19
TYPE ASSIGNMENTS     16 20 11 12 13 17 14 15 18 19 16 20  1  1  1  1  1  1  2  3
TYPE ASSIGNMENTS      4  2  3  4  2  3  4  5  6  7  8  9 10  5  6  7  8  9 10  1
TYPE ASSIGNMENTS      1  1  1  1  1  2  3  4  2  3  4  2  3  4  5  6  7  8  9 10
TYPE ASSIGNMENTS      5  6  7  8  9 10
EXPONENTS  0.1533000D+05 0.2299000D+04 0.5224000D+03 0.1473000D+03 0.4755000D+02
EXPONENTS  0.1676000D+02 0.6207000D+01 0.5224000D+03 0.1473000D+03 0.4755000D+02
EXPONENTS  0.1676000D+02 0.6207000D+01 0.6882000D+00 0.1752000D+01 0.2384000D+00
EXPONENTS  0.7376000D-01 0.3446000D+02 0.7749000D+01 0.2280000D+01 0.3446000D+02
EXPONENTS  0.7749000D+01 0.2280000D+01 0.3446000D+02 0.7749000D+01 0.2280000D+01
EXPONENTS  0.7156000D+00 0.7156000D+00 0.7156000D+00 0.2140000D+00 0.2140000D+00
EXPONENTS  0.2140000D+00 0.5974000D-01 0.5974000D-01 0.5974000D-01 0.2314000D+01
EXPONENTS  0.2314000D+01 0.2314000D+01 0.2314000D+01 0.2314000D+01 0.2314000D+01
EXPONENTS  0.6450000D+00 0.6450000D+00 0.6450000D+00 0.6450000D+00 0.6450000D+00
EXPONENTS  0.6450000D+00 0.2140000D+00 0.2140000D+00 0.2140000D+00 0.2140000D+00
EXPONENTS  0.2140000D+00 0.2140000D+00 0.1428000D+01 0.1428000D+01 0.1428000D+01
EXPONENTS  0.1428000D+01 0.1428000D+01 0.1428000D+01 0.1428000D+01 0.1428000D+01
EXPONENTS  0.1428000D+01 0.1428000D+01 0.5000000D+00 0.5000000D+00 0.5000000D+00
EXPONENTS  0.5000000D+00 0.5000000D+00 0.5000000D+00 0.5000000D+00 0.5000000D+00
EXPONENTS  0.5000000D+00 0.5000000D+00 0.3387000D+02 0.5095000D+01 0.1159000D+01
EXPONENTS  0.3258000D+00 0.1027000D+00 0.2526000D-01 0.1407000D+01 0.1407000D+01
EXPONENTS  0.1407000D+01 0.3880000D+00 0.3880000D+00 0.3880000D+00 0.1020000D+00
EXPONENTS  0.1020000D+00 0.1020000D+00 0.1057000D+01 0.1057000D+01 0.1057000D+01
EXPONENTS  0.1057000D+01 0.1057000D+01 0.1057000D+01 0.2470000D+00 0.2470000D+00
EXPONENTS  0.2470000D+00 0.2470000D+00 0.2470000D+00 0.2470000D+00 0.3387000D+02
EXPONENTS  0.5095000D+01 0.1159000D+01 0.3258000D+00 0.1027000D+00 0.2526000D-01
EXPONENTS  0.1407000D+01 0.1407000D+01 0.1407000D+01 0.3880000D+00 0.3880000D+00
EXPONENTS  0.3880000D+00 0.1020000D+00 0.1020000D+00 0.1020000D+00 0.1057000D+01
EXPONENTS  0.1057000D+01 0.1057000D+01 0.1057000D+01 0.1057000D+01 0.1057000D+01
EXPONENTS  0.2470000D+00 0.2470000D+00 0.2470000D+00 0.2470000D+00 0.2470000D+00
EXPONENTS  0.2470000D+00
MO    1     MO 0.0        OCC NO =    2.0000000  ORB. ENERGY =    0.000000
  0.15223129D+00  0.28373409D+00  0.48111101D+00  0.72811036D+00  0.90826028D+00
  0.77942245D+00  0.29847739D+00  0.12050741D-04  0.12929654D-03  0.47661139D-03
  0.13935837D-02  0.16793362D-02 -0.20229384D-02  0.15861883D-01  0.27806263D-02
  0.10232324D-04  0.34705256D+00  0.33652424D+00  0.22701727D+00  0.13681801D+01
  0.13266745D+01  0.89496678D+00  0.22416806D-01  0.21736761D-01  0.14663491D-01
  0.78385894D-01  0.28679851D+00  0.17125982D-02  0.12972220D-01  0.29099786D-01
 -0.14915099D-02  0.41935198D-03  0.31693053D-03 -0.38555726D-04 -0.12502049D-02
  0.55135791D-02 -0.42633742D-02 -0.19744922D-04 -0.14083429D-01 -0.12781049D+00
 -0.73878869D-03  0.11579824D-02 -0.41919376D-03  0.22744351D-03 -0.37217913D-02
 -0.18569115D-01 -0.16294438D-03  0.66981572D-04  0.95962808D-04  0.43341813D-04
 -0.25782249D-03  0.45973484D-03 -0.20617846D-02  0.61524036D-02  0.45008887D-04
  0.41252795D-02 -0.14806938D-01  0.78145725D-03  0.20600742D-02 -0.36502732D-02
 -0.91648391D-03  0.35134878D-03 -0.90664028D-04  0.10552858D-03  0.70544378D-04
  0.14791052D-03 -0.99773055D-03  0.10807891D-03  0.12408156D-03  0.68114482D-03
 -0.31971204D-03 -0.12332698D-03 -0.34071830D-01 -0.61449949D-01 -0.90607913D-01
 -0.63317738D-01 -0.73601780D-02  0.12201701D-03  0.49071841D-02 -0.16382794D-01
 -0.28159857D-01  0.26655402D-02 -0.57880033D-02 -0.11169797D-01  0.40864553D-03
  0.38375108D-03 -0.18209490D-03  0.68064325D-02 -0.15800112D-02 -0.52264212D-02
  0.23078102D-02  0.19785300D-02 -0.20054567D-01  0.40441393D-04  0.22575215D-03
 -0.26619355D-03  0.24169657D-03  0.17750940D-03 -0.41425337D-03  0.35082595D-01
  0.63272905D-01  0.93295861D-01  0.63018284D-01  0.83295911D-02 -0.11977433D-03
  0.44016707D-02 -0.17804214D-01  0.22263623D-01  0.24024596D-02 -0.67884973D-02
  0.93037379D-02  0.37907520D-03  0.23570375D-03  0.16965378D-03 -0.57475446D-02
  0.31848534D-02  0.25626912D-02 -0.22869549D-02  0.15688360D-02 -0.16907864D-01
 -0.17604773D-03 -0.12553170D-04  0.18860090D-03 -0.22704390D-03  0.12334221D-03
 -0.79917666D-03
MO    2     MO 0.0        OCC NO =    2.0000000  ORB. ENERGY =    0.000000
  0.19646179D+00  0.36617247D+00  0.62089689D+00  0.93966142D+00  0.11721536D+01
  0.10058821D+01  0.38519942D+00  0.22668753D-03  0.24322085D-02  0.89655783D-02
  0.26214825D-01  0.31590139D-01 -0.38053670D-01  0.66849854D-03  0.35619838D-01
  0.76396168D-02 -0.36840585D-01 -0.35722975D-01 -0.24098508D-01 -0.18008794D+00
 -0.17462472D+00 -0.11780080D+00  0.13982666D+01  0.13558483D+01  0.91464724D+00
 -0.83208784D-02 -0.41878552D-01  0.30502376D+00 -0.13770369D-02 -0.60280041D-02
  0.36492305D-01 -0.44515367D-04 -0.87593854D-04  0.68981384D-03  0.40899159D-01
 -0.27062279D-02 -0.38192931D-01  0.20959778D-05  0.14949948D-02  0.11219902D-01
  0.64221827D-02  0.47056942D-02 -0.11127877D-01 -0.24143755D-04  0.39507840D-03
  0.50046094D-02 -0.60199631D-03  0.11334742D-02 -0.53147789D-03 -0.46008528D-05
  0.27368567D-04  0.66902930D-03  0.21886411D-03 -0.13627825D-02  0.16361340D-02
 -0.43790978D-03  0.31326023D-02 -0.17447602D-01 -0.21868254D-03  0.95574515D-03
  0.12539200D-01 -0.37296640D-04  0.96242362D-05  0.16247431D-03  0.57196729D-03
 -0.15701109D-04  0.29702642D-03 -0.52702765D-03 -0.13171599D-04 -0.78444935D-03
 -0.11888742D-02  0.13091498D-04 -0.26594711D-01 -0.47964657D-01 -0.70723859D-01
 -0.50855044D-01 -0.75374062D-02 -0.10462506D-03 -0.52091110D-03 -0.27382014D-01
 -0.39174747D-02 -0.28295443D-03 -0.12044313D-01 -0.71340492D-03 -0.43378848D-04
 -0.30363882D-03  0.89736654D-03  0.42038184D-02 -0.67183130D-02  0.25144946D-02
 -0.24498040D-03 -0.21002641D-03 -0.10647826D-01  0.82837293D-04 -0.26956267D-03
  0.18672537D-03 -0.25656756D-04 -0.18843111D-04  0.38987399D-03 -0.31256690D-01
 -0.56372728D-01 -0.83121555D-01 -0.57394969D-01 -0.92420117D-02 -0.88356710D-04
 -0.46724947D-03  0.26033794D-01 -0.36932169D-02 -0.25502770D-03  0.12002787D-01
 -0.10300394D-02 -0.40239876D-04  0.23297248D-03  0.80579226D-03  0.43190759D-02
 -0.69496351D-02  0.26305592D-02  0.24276656D-03 -0.16653626D-03  0.89400150D-02
  0.23790016D-03 -0.27819264D-03  0.40292483D-04  0.24101335D-04 -0.13093115D-04
 -0.27071657D-04
MO    3     MO 0.0        OCC NO =    2.0000000  ORB. ENERGY =    0.000000
  0.44412222D+00  0.82777079D+00  0.14036017D+01  0.21242019D+01  0.26497745D+01
  0.22739007D+01  0.87078317D+00  0.41870460D-03  0.44924256D-02  0.16559927D-01
  0.48420254D-01  0.58348760D-01 -0.70287265D-01  0.92899216D-02 -0.41203912D-01
 -0.51788426D-02 -0.14503258D+00 -0.14063282D+00 -0.94870069D-01 -0.37330770D+00
 -0.36198289D+00 -0.24419152D+00 -0.70453990D+00 -0.68316671D+00 -0.46086023D+00
 -0.32757311D-01 -0.78087787D-01 -0.14998067D+00 -0.54210652D-02 -0.75004108D-02
 -0.18573218D-01 -0.17524637D-03 -0.79561351D-04 -0.35005387D-03 -0.16413271D-01
 -0.37616151D-02  0.20174886D-01  0.82513639D-05  0.58854373D-02  0.38072533D-01
 -0.10130927D-02 -0.44233031D-02  0.54363958D-02 -0.95048197D-04  0.15553293D-02
  0.47941148D-02  0.41791740D-03 -0.64498386D-03  0.22706646D-03 -0.18112459D-04
  0.10774351D-03 -0.33995357D-03  0.86161572D-03 -0.14589373D-02 -0.98849783D-03
 -0.17239462D-02  0.42518430D-02  0.79467090D-02 -0.86090094D-03  0.12496893D-03
 -0.49812156D-02 -0.14682796D-03  0.37888319D-04 -0.13938029D-03 -0.38362220D-03
 -0.61811517D-04  0.26544280D-03 -0.18961576D-03 -0.51853441D-04  0.15269807D-03
  0.13404824D-02  0.51538102D-04  0.19157750D-01  0.34551790D-01  0.50946594D-01
  0.41476832D-01  0.66481381D-02  0.27172869D-04 -0.20507026D-02  0.12661871D-01
  0.55180530D-02 -0.11139240D-02  0.65995637D-02  0.25949051D-02 -0.17077217D-03
  0.38883486D-04 -0.42940986D-03 -0.24165925D-02  0.26344019D-02 -0.21780934D-03
 -0.96442934D-03 -0.82682380D-03  0.60398471D-02 -0.56157147D-04  0.57551842D-04
 -0.13946949D-05 -0.10100452D-03 -0.74180828D-04 -0.82109480D-04 -0.14738575D-02
 -0.26581627D-02 -0.39194594D-02  0.39495666D-02  0.26725533D-02  0.11863748D-03
 -0.18394495D-02 -0.16777824D-02 -0.96747852D-02 -0.10039832D-02 -0.32566609D-02
 -0.33507664D-02 -0.15841478D-03 -0.31341892D-03 -0.45611893D-03  0.97764728D-03
  0.13667866D-02 -0.23444339D-02  0.95571396D-03 -0.65561349D-03  0.48205649D-02
 -0.73953852D-04  0.17517422D-03 -0.10122037D-03  0.94881199D-04 -0.51544468D-04
  0.28374794D-03
MO    4     MO 0.0        OCC NO =    2.0000000  ORB. ENERGY =    0.000000
  0.97798274D-02  0.18227990D-01  0.30908119D-01  0.46776151D-01  0.58349562D-01
  0.50072605D-01  0.19175148D-01 -0.16459890D-02 -0.17660382D-01 -0.65099493D-01
 -0.19034710D+00 -0.22937751D+00  0.27630952D+00  0.17116522D+00  0.90988855D-01
  0.70355571D-02 -0.40391908D+00 -0.39166564D+00 -0.26421533D+00 -0.52419993D-01
 -0.50829760D-01 -0.34289456D-01  0.31663490D+00  0.30702935D+00  0.20712018D+00
 -0.91229865D-01 -0.97487417D-02  0.64793281D-01 -0.15097791D-01 -0.87767752D-03
  0.11914371D-01 -0.48806517D-03 -0.17358005D-04  0.21501461D-03 -0.11994111D-01
  0.19000074D-01 -0.70059622D-02  0.22980239D-04  0.16391078D-01  0.76373033D-02
 -0.43816772D-02  0.58899419D-02 -0.15082647D-02 -0.26471142D-03  0.43316279D-02
  0.12748841D-03 -0.17661939D-03  0.26425577D-03 -0.87636386D-04 -0.50443614D-04
  0.30006816D-03 -0.89636783D-04  0.23996196D-02  0.36586268D-03  0.24114266D-02
 -0.48012299D-02  0.11587030D-04  0.20477496D-02 -0.23976290D-02 -0.11091751D-02
 -0.92820293D-02 -0.40891926D-03  0.10551984D-03 -0.27098215D-04 -0.96227310D-04
 -0.17214650D-03 -0.15172923D-03  0.13081958D-03 -0.14441303D-03  0.23302387D-03
  0.15786235D-03  0.14353480D-03  0.13716812D-01  0.24738835D-01  0.36477398D-01
  0.22524123D-02 -0.49105819D-02 -0.11725858D-03 -0.57112539D-02  0.13511598D-01
  0.18385975D-01 -0.31023040D-02 -0.15106221D-02  0.27194842D-02 -0.47560441D-03
 -0.47304576D-03  0.10397520D-03 -0.14656716D-02 -0.52725098D-03  0.19929225D-02
 -0.26859579D-02 -0.23027233D-02  0.54342772D-02  0.10773242D-03 -0.15367061D-03
  0.45938189D-04 -0.28129992D-03 -0.20659532D-03 -0.91328730D-04  0.10395204D-01
  0.18748178D-01  0.27644178D-01 -0.17018632D-02 -0.52437673D-02 -0.10833779D-03
 -0.51229094D-02 -0.12341953D-01  0.13816721D-01 -0.27961162D-02  0.17627530D-02
  0.22919202D-02 -0.44118881D-03  0.46290713D-03  0.14445881D-03 -0.78275054D-03
 -0.53218540D-03  0.13149359D-02  0.26616854D-02 -0.18258987D-02 -0.36104927D-02
  0.98608837D-04 -0.17133743D-03  0.72728589D-04  0.26424632D-03 -0.14355253D-03
  0.19559029D-04
MO    5     MO 0.0        OCC NO =    2.0000000  ORB. ENERGY =    0.000000
  0.13350219D-01  0.24882612D-01  0.42191966D-01  0.63853054D-01  0.79651651D-01
  0.68352967D-01  0.26175555D-01 -0.35178748D-03 -0.37744488D-02 -0.13913329D-01
 -0.40681757D-01 -0.49023496D-01  0.59053996D-01  0.38115714D-01  0.18249546D-01
  0.13888471D-02  0.17054374D+01  0.16537006D+01  0.11155766D+01 -0.32647354D+00
 -0.31656952D+00 -0.21355593D+00  0.40720809D-01  0.39485487D-01  0.26636676D-01
  0.38519304D+00 -0.68217084D-01  0.88317821D-02  0.63746277D-01 -0.68976705D-02
  0.23341522D-02  0.20607211D-02 -0.77263921D-04  0.43902693D-04 -0.30986032D-02
  0.29996615D-02  0.98941748D-04 -0.97027744D-04 -0.69206825D-01  0.31298080D-01
 -0.83484685D-03  0.88482676D-03 -0.49979908D-04  0.11176712D-02 -0.18289109D-01
  0.43247731D-02  0.13863931D-04  0.18591126D-04 -0.32455057D-04  0.21298430D-03
 -0.12669554D-02 -0.12924255D-03 -0.10131735D-01 -0.13188568D-02  0.51324811D-03
  0.20271874D-01  0.34451740D-02  0.62486626D-03  0.10123330D-01  0.51139635D-03
 -0.21646106D-02  0.17265492D-02 -0.44552854D-03 -0.36236150D-04 -0.57414459D-04
  0.72684129D-03  0.19608993D-03 -0.18520180D-04  0.60974433D-03 -0.87381482D-04
  0.19076356D-03 -0.60603626D-03  0.11236960D-01  0.20266320D-01  0.29882677D-01
  0.15847160D-01  0.73729186D-03 -0.52551207D-04  0.24114201D-01  0.70192537D-02
  0.10469673D-01  0.13098626D-01  0.11211227D-02  0.31223789D-02  0.20081090D-02
 -0.19338199D-03  0.44548783D-04 -0.18469257D-02  0.27555849D-03  0.15713672D-02
  0.11340719D-01  0.97226166D-02  0.56517464D-02  0.14299587D-04 -0.83264453D-04
  0.68964866D-04  0.11877116D-02  0.87229196D-03  0.64108430D-04 -0.54777476D-02
 -0.98793433D-02 -0.14567086D-01 -0.14131108D-01 -0.29093636D-02  0.68952841D-05
  0.21630077D-01  0.11197214D-02 -0.21607534D-02  0.11805833D-01  0.17812690D-02
 -0.16576706D-02  0.18627985D-02  0.40049740D-04 -0.21692594D-04  0.11606642D-02
 -0.80804573D-03 -0.35261851D-03 -0.11238235D-01  0.77093555D-02  0.31886630D-02
  0.58029965D-04 -0.29137778D-04 -0.28892187D-04 -0.11157075D-02  0.60611112D-03
  0.19080849D-03
END DATA
 TOTAL ENERGY =    -76.464690427611 THE VIRIAL(-V/T)=   2.00663677
