 52
GAUSSIAN              5 MOL ORBITALS    126 PRIMITIVES        3 NUCLEI   B3LYP   B3LYP   B3LYP
  O    1    (CENTRE  1)   0.00000000  0.00000000  0.10264236  CHARGE =  8.0
  H    2    (CENTRE  2)   0.00000000 -1.44255835 -1.00281530  CHARGE =  1.0
  H    3    (CENTRE  3)   0.00000000  1.44255835 -1.09730160  CHARGE =  1.0
CENTRE ASSIGNMENTS    1  1  1  1  1  1  1  1  1  1  1  1  1  1  1  1  1  1  1  1
CENTRE ASSIGNMENTS    1  1  1  1  1  1  1  1  1  1  1  1  1  1  1  1  1  1  1  1
CENTRE ASSIGNMENTS    1  1  1  1  1  1  1  1  1  1  1  1  1  1  1  1  1  1  1  1
CENTRE ASSIGNMENTS    1  1  1  1  1  1  1  1  1  1  1  1  2  2  2  2  2  2  2  2
CENTRE ASSIGNMENTS    2  2  2  2  2  2  2  2  2  2  2  2  2  2  2  2  2  2  2  3
CENTRE ASSIGNMENTS    3  3  3  3  3  3  3  3  3  3  3  3  3  3  3  3  3  3  3  3
CENTRE ASSIGNMENTS    3  3  3  3  3  3
TYPE ASSIGNMENTS      1  1  1  1  1  1  1  1  1  1  1  1  1  1  1  1  2  2  2  3
TYPE ASSIGNMENTS      3  3  4  4  4  2  3  4  2  3  4  2  3  4  5  6  7  8  9 10
TYPE ASSIGNMENTS      5  6  7  8  9 10  5  6  7  8  9 10 11 12 13 17 14 15 18 19
TYPE ASSIGNMENTS     16 20 11 12 13 17 14 15 18 19 16 20  1  1  1  1  1  1  2  3
TYPE ASSIGNMENTS      4  2  3  4  2  3  4  5  6  7  8  9 10  5  6  7  8  9 10  1
TYPE ASSIGNMENTS      1  1  1  1  1  2  3  4  2  3  4  2  3  4  5  6  7  8  9 10
TYPE ASSIGNMENTS      5  6  7  8  9 10
EXPONENTS  0.1533000D+05 0.2299000D+04 0.5224000D+03 0.1473000D+03 0.4755000D+02
EXPONENTS  0.1676000D+02 0.6207000D+01 0.5224000D+03 0.1473000D+03 0.4755000D+02
EXPONENTS  0.1676000D+02 0.6207000D+01 0.6882000D+00 0.1752000D+01 0.2384000D+00
EXPONENTS  0.7376000D-01 0.3446000D+02 0.7749000D+01 0.2280000D+01 0.3446000D+02
EXPONENTS  0.7749000D+01 0.2280000D+01 0.3446000D+02 0.7749000D+01 0.2280000D+01
EXPONENTS  0.7156000D+00 0.7156000D+00 0.7156000D+00 0.2140000D+00 0.2140000D+00
EXPONENTS  0.2140000D+00 0.5974000D-01 0.5974000D-01 0.5974000D-01 0.2314000D+01
EXPONENTS  0.2314000D+01 0.2314000D+01 0.2314000D+01 0.2314000D+01 0.2314000D+01
EXPONENTS  0.6450000D+00 0.6450000D+00 0.6450000D+00 0.6450000D+00 0.6450000D+00
EXPONENTS  0.6450000D+00 0.2140000D+00 0.2140000D+00 0.2140000D+00 0.2140000D+00
EXPONENTS  0.2140000D+00 0.2140000D+00 0.1428000D+01 0.1428000D+01 0.1428000D+01
EXPONENTS  0.1428000D+01 0.1428000D+01 0.1428000D+01 0.1428000D+01 0.1428000D+01
EXPONENTS  0.1428000D+01 0.1428000D+01 0.5000000D+00 0.5000000D+00 0.5000000D+00
EXPONENTS  0.5000000D+00 0.5000000D+00 0.5000000D+00 0.5000000D+00 0.5000000D+00
EXPONENTS  0.5000000D+00 0.5000000D+00 0.3387000D+02 0.5095000D+01 0.1159000D+01
EXPONENTS  0.3258000D+00 0.1027000D+00 0.2526000D-01 0.1407000D+01 0.1407000D+01
EXPONENTS  0.1407000D+01 0.3880000D+00 0.3880000D+00 0.3880000D+00 0.1020000D+00
EXPONENTS  0.1020000D+00 0.1020000D+00 0.1057000D+01 0.1057000D+01 0.1057000D+01
EXPONENTS  0.1057000D+01 0.1057000D+01 0.1057000D+01 0.2470000D+00 0.2470000D+00
EXPONENTS  0.2470000D+00 0.2470000D+00 0.2470000D+00 0.2470000D+00 0.3387000D+02
EXPONENTS  0.5095000D+01 0.1159000D+01 0.3258000D+00 0.1027000D+00 0.2526000D-01
EXPONENTS  0.1407000D+01 0.1407000D+01 0.1407000D+01 0.3880000D+00 0.3880000D+00
EXPONENTS  0.3880000D+00 0.1020000D+00 0.1020000D+00 0.1020000D+00 0.1057000D+01
EXPONENTS  0.1057000D+01 0.1057000D+01 0.1057000D+01 0.1057000D+01 0.1057000D+01
EXPONENTS  0.2470000D+00 0.2470000D+00 0.2470000D+00 0.2470000D+00 0.2470000D+00
EXPONENTS  0.2470000D+00
MO    1     MO 0.0        OCC NO =    2.0000000  ORB. ENERGY =    0.000000
 -0.56260094D-01 -0.10485956D+00 -0.17780413D+00 -0.26908764D+00 -0.33566562D+00
 -0.28805104D+00 -0.11030825D+00  0.21494188D-04  0.23061853D-03  0.85010334D-03
  0.24856523D-02  0.29953319D-02 -0.36081947D-02 -0.83798879D-02  0.46969461D-01
  0.85001141D-02 -0.47359034D-01 -0.45922333D-01 -0.30978934D-01  0.56057566D+00
  0.54356982D+00  0.36668899D+00  0.14416992D+01  0.13979633D+01  0.94305776D+00
 -0.10697515D-01  0.11572711D+00  0.31263619D+00 -0.17698841D-02  0.10907633D-01
  0.37516189D-01 -0.57187590D-04  0.12263006D-03  0.71416541D-03  0.41256207D-01
 -0.29161262D-02 -0.38340081D-01  0.10675091D-03  0.19179129D-02 -0.53480202D-01
  0.56393291D-02  0.57747105D-02 -0.11414040D-01  0.69665488D-05  0.50885616D-03
 -0.69612261D-02 -0.72130921D-03  0.12892344D-02 -0.56792520D-03 -0.20243543D-05
  0.35360206D-04  0.43631026D-03  0.28171554D-03  0.24583983D-02  0.17610646D-02
 -0.56740344D-03 -0.55947980D-02 -0.17660371D-01 -0.27774318D-03 -0.17803968D-02
  0.12377178D-01 -0.66726574D-06  0.12262070D-04  0.72831491D-04  0.69120145D-03
 -0.18888309D-04 -0.26699411D-03 -0.28429366D-03 -0.17897899D-04  0.48499638D-04
 -0.17893107D-02  0.11454028D-04 -0.41520651D-01 -0.74884203D-01 -0.11041671D+00
 -0.80170073D-01 -0.11575524D-01 -0.58945766D-04 -0.65909470D-03 -0.33939162D-01
 -0.11991490D-01 -0.35828091D-03 -0.14895409D-01 -0.41775969D-02 -0.55173027D-04
 -0.93619699D-04  0.87428138D-03  0.64890457D-02 -0.82398306D-02  0.17507849D-02
 -0.32935378D-03 -0.24262266D-03 -0.15883854D-01  0.13420112D-03 -0.17568774D-03
  0.41486624D-04 -0.34088521D-04 -0.21166469D-04  0.19290613D-03 -0.14194056D-01
 -0.25599565D-01 -0.37746544D-01 -0.29332755D-01 -0.60037336D-02 -0.16109655D-03
 -0.61302459D-03  0.17802823D-01  0.71201630D-02 -0.33428995D-03  0.94911239D-02
  0.30658243D-02 -0.52467269D-04  0.45074875D-03  0.91866286D-03  0.12655839D-02
 -0.53609596D-02  0.40953757D-02  0.30098783D-03 -0.23967661D-03  0.10834640D-02
  0.15536981D-03 -0.33403420D-03  0.17866439D-03  0.30492092D-04 -0.19752928D-04
 -0.38761752D-03
MO    2     MO 0.0        OCC NO =    2.0000000  ORB. ENERGY =    0.000000
 -0.16553799D-02 -0.30853559D-02 -0.52316545D-02 -0.79175527D-02 -0.98765229D-02
 -0.84755261D-02 -0.32456762D-02 -0.65246278D-04 -0.70004974D-03 -0.25805152D-02
 -0.75452750D-02 -0.90924232D-02  0.10952787D-01  0.56677390D-02 -0.11850297D-01
 -0.28173733D-02  0.11033629D+00  0.10698909D+00  0.72174208D-01  0.13538456D+01
  0.13127748D+01  0.88559012D+00 -0.57050780D+00 -0.55320066D+00 -0.37318590D+00
  0.24922893D-01  0.28428850D+00 -0.12596971D+00  0.41234466D-02  0.28968081D-01
 -0.15932572D-01  0.13323470D-03  0.31322141D-03 -0.29551677D-03 -0.15446099D-01
 -0.26654849D-02  0.18111584D-01 -0.24870650D-03 -0.44683217D-02 -0.12689706D+00
 -0.27770959D-02 -0.20730820D-02  0.48501779D-02 -0.16230550D-04 -0.11855246D-02
 -0.18733464D-01  0.11490171D-03 -0.35792557D-03  0.24302386D-03  0.47163070D-05
 -0.82381621D-04  0.37842238D-03 -0.65633620D-03  0.60171883D-02 -0.40253253D-03
  0.13219271D-02 -0.14826298D-01  0.75808630D-02  0.64708146D-03 -0.32252671D-02
 -0.63732654D-02  0.15545847D-05 -0.28567966D-04  0.75867670D-04 -0.20599431D-03
  0.44005670D-04 -0.10168408D-02  0.32964226D-03  0.41698229D-04  0.78923784D-03
  0.28834068D-03 -0.26685404D-04 -0.23741859D-01 -0.42819420D-01 -0.63137210D-01
 -0.43105669D-01 -0.44600668D-02  0.15716152D-03  0.15355479D-02 -0.80338017D-02
 -0.24900563D-01  0.83471692D-03 -0.20391106D-02 -0.10241979D-01  0.12854120D-03
  0.43225111D-03 -0.52012413D-03  0.49073656D-02 -0.24566914D-03 -0.46616964D-02
  0.76732299D-03  0.56525826D-03 -0.15899771D-01  0.18498513D-04  0.25349298D-03
 -0.27199149D-03  0.79418871D-04  0.49313289D-04 -0.65524030D-03  0.45176562D-01
  0.81477789D-01  0.12013895D+00  0.82196283D-01  0.11234313D-01 -0.84334954D-04
  0.14282145D-02 -0.25482712D-01  0.25405243D-01  0.77882319D-03 -0.10383338D-01
  0.10332560D-01  0.12223737D-03  0.15557846D-03 -0.13993471D-03 -0.74075785D-02
  0.43883590D-02  0.30192196D-02 -0.70123646D-03  0.55839459D-03 -0.20870674D-01
 -0.22298536D-03  0.98212527D-05  0.21316411D-03 -0.71039971D-04  0.46020045D-04
 -0.66850710D-03
MO    3     MO 0.0        OCC NO =    2.0000000  ORB. ENERGY =    0.000000
 -0.85881630D-01 -0.16006924D+00 -0.27141989D+00 -0.41076514D+00 -0.51239713D+00
 -0.43971297D+00 -0.16838671D+00 -0.23758699D-03 -0.25491524D-02 -0.93966559D-02
 -0.27475271D-01 -0.33109037D-01  0.39883344D-01  0.14425733D-01  0.13913234D-01
  0.12270478D-02  0.17542374D+01  0.17010202D+01  0.11474982D+01 -0.80450892D-01
 -0.78010303D-01 -0.52625290D-01  0.92929826D-01  0.90110672D-01  0.60788127D-01
  0.39624923D+00 -0.16687273D-01  0.19495467D-01  0.65558703D-01 -0.16237694D-02
  0.29726073D-02  0.21182993D-02 -0.16583370D-04  0.55296786D-04 -0.34371238D-04
  0.25440761D-02 -0.25097048D-02 -0.39541862D-02 -0.71041874D-01  0.74921680D-02
 -0.44517234D-03  0.10529630D-02 -0.60779063D-03 -0.25804961D-03 -0.18848664D-01
  0.90965805D-03 -0.46382937D-04  0.77212982D-04 -0.30830045D-04  0.74984594D-04
 -0.13097859D-02 -0.42361220D-04 -0.10435093D-01 -0.37842929D-03  0.31430093D-03
  0.21017328D-01  0.80800269D-03 -0.50376728D-03  0.10287952D-01  0.32728518D-03
 -0.43913550D-03  0.24716351D-04 -0.45420227D-03 -0.73759008D-05  0.23760344D-04
  0.69964642D-03  0.48224905D-04  0.48345676D-04  0.66296040D-03 -0.26097202D-04
 -0.11962671D-03 -0.42427140D-03  0.29798710D-02  0.53743201D-02  0.79244318D-02
  0.23527069D-02 -0.46823972D-03 -0.25564336D-04  0.24413686D-01  0.23558689D-02
  0.38623176D-02  0.13271169D-01 -0.67249762D-04  0.10616817D-02  0.20436774D-02
 -0.80696067D-04  0.67505779D-04 -0.61604835D-03  0.85195996D-04  0.53085235D-03
  0.12199673D-01  0.89870446D-02  0.21129960D-02  0.12105057D-04 -0.36084316D-04
  0.23979259D-04  0.12626811D-02  0.78403229D-03  0.43831951D-04 -0.13112583D-02
 -0.23649083D-02 -0.34870560D-02 -0.54050051D-02 -0.14658434D-02 -0.12719707D-04
  0.22707192D-01  0.10747470D-04  0.64807129D-03  0.12382515D-01  0.93869615D-03
 -0.26795415D-03  0.19434528D-02  0.59273835D-04  0.35461550D-04  0.22122620D-03
 -0.31784127D-03  0.96615067D-04 -0.11148963D-01  0.88779190D-02  0.41837811D-03
  0.28887558D-04 -0.26857122D-04 -0.20304361D-05 -0.11294649D-02  0.73167297D-03
  0.42605189D-04
MO    4     MO 0.0        OCC NO =    2.0000000  ORB. ENERGY =    0.000000
  0.49685042D+00  0.92604749D+00  0.15702437D+01  0.23763968D+01  0.29643677D+01
  0.25438685D+01  0.97416649D+00  0.53063594D-03  0.56933754D-02  0.20986854D-01
  0.61364330D-01  0.73947001D-01 -0.89076999D-01  0.40920421D-02 -0.20031451D-01
 -0.90616640D-03  0.31196376D+00  0.30249991D+00  0.20406465D+00  0.54397972D-01
  0.52747734D-01  0.35583310D-01  0.82714796D-01  0.80205529D-01  0.54106176D-01
  0.70466745D-01  0.10293751D-01  0.20431979D-01  0.11658593D-01  0.65245093D-03
  0.12574287D-02  0.37670649D-03  0.19349975D-05  0.22680389D-04  0.63954439D-02
 -0.38971105D-02 -0.24983335D-02 -0.70319034D-03 -0.12633689D-01 -0.46830034D-02
  0.22127682D-02 -0.12431337D-02 -0.96963450D-03 -0.45890098D-04 -0.33519408D-02
  0.44060258D-04  0.10044013D-04  0.37799076D-04 -0.47843088D-04  0.13334840D-04
 -0.23292499D-03  0.12787957D-03 -0.18557186D-02  0.25704393D-03 -0.82671626D-04
  0.37376039D-02 -0.12099924D-03 -0.17326132D-02  0.18295518D-02 -0.65013256D-03
  0.19806281D-02  0.43954175D-05 -0.80772790D-04  0.22834608D-04 -0.62334691D-05
  0.12442120D-03 -0.14009837D-05 -0.37493319D-03  0.11789717D-03 -0.67102839D-04
  0.39363360D-03 -0.75450051D-04 -0.85267893D-02 -0.15378416D-01 -0.22675465D-01
 -0.10452890D-01 -0.23340885D-03  0.19032695D-04  0.43415932D-02 -0.88032164D-02
 -0.63314757D-02  0.23600705D-02 -0.21179507D-02 -0.16512913D-02  0.36343615D-03
  0.46044081D-04  0.19703740D-04  0.21497925D-02 -0.19063993D-02 -0.24339328D-03
  0.21695215D-02  0.15982057D-02 -0.62456377D-02  0.19222329D-05  0.89320132D-06
 -0.28154342D-05  0.22454814D-03  0.13942791D-03 -0.98768349D-05 -0.55285227D-02
 -0.99709183D-02 -0.14702113D-01 -0.43251090D-02  0.60780483D-03  0.19147767D-04
  0.40381198D-02  0.60228776D-02 -0.38132154D-02  0.22020371D-02  0.95306718D-03
 -0.52317298D-03  0.34561276D-03 -0.73602570D-04  0.60484991D-04  0.11805443D-02
 -0.10533625D-02 -0.12718178D-03 -0.19826691D-02  0.15787994D-02  0.34717194D-02
 -0.64426769D-05  0.70677594D-05 -0.62508247D-06 -0.20085772D-03  0.13011663D-03
 -0.37630332D-04
MO    5     MO 0.0        OCC NO =    2.0000000  ORB. ENERGY =    0.000000
  0.43348312D-01  0.80794125D-01  0.13699779D+00  0.20733159D+00  0.25862982D+00
  0.22194286D+00  0.84992326D-01 -0.16481070D-02 -0.17683106D-01 -0.65183260D-01
 -0.19059203D+00 -0.22967266D+00  0.27666506D+00  0.17534726D+00  0.92905205D-01
  0.73456466D-02 -0.15743017D+00 -0.15265431D+00 -0.10297970D+00 -0.84468428D-02
 -0.81905961D-02 -0.55253278D-02  0.36587521D+00  0.35477588D+00  0.23932971D+00
 -0.35560515D-01 -0.11150750D-02  0.75389203D-01 -0.58834215D-02  0.22054077D-03
  0.13163040D-01 -0.19010211D-03  0.16802962D-05  0.23915834D-03 -0.10946237D-01
  0.19635127D-01 -0.86888894D-02  0.35485974D-03  0.63754966D-02  0.13563686D-02
 -0.42185187D-02  0.60796062D-02 -0.18610875D-02  0.23158094D-04  0.16915318D-02
 -0.81180505D-03 -0.19942161D-03  0.29659349D-03 -0.97171887D-04 -0.67293273D-05
  0.11754385D-03 -0.84655658D-04  0.93647448D-03 -0.22981323D-03  0.25265272D-02
 -0.18861538D-02  0.55685952D-04  0.15790018D-02 -0.92326962D-03  0.63375375D-03
 -0.91585835D-02 -0.22181145D-05  0.40761383D-04 -0.56773267D-05 -0.99895814D-04
 -0.62788228D-04 -0.97751218D-04  0.11230124D-03 -0.59495922D-04  0.11478320D-03
  0.18738620D-03  0.38075303D-04  0.12158668D-01  0.21928658D-01  0.32333793D-01
 -0.59111071D-03 -0.53237591D-02 -0.11926665D-03 -0.21909525D-02  0.13386093D-01
  0.16646749D-01 -0.11909919D-02 -0.18945010D-02  0.26366214D-02 -0.18340533D-03
 -0.47684157D-03  0.16371909D-03 -0.11172706D-02 -0.52181408D-03  0.16390847D-02
 -0.10948328D-02 -0.80652253D-03  0.48034385D-02  0.11128892D-03 -0.16980184D-03
  0.58512926D-04 -0.11331654D-03 -0.70361252D-04 -0.48416399D-04  0.10365701D-01
  0.18694968D-01  0.27565720D-01 -0.23663517D-02 -0.54496592D-02 -0.11443681D-03
 -0.20378069D-02 -0.11160626D-01  0.15328714D-01 -0.11112415D-02  0.22160226D-02
  0.22968643D-02 -0.17441089D-03  0.48807651D-03  0.14057178D-03 -0.76790409D-03
 -0.94070175D-03  0.17086058D-02  0.10005391D-02 -0.79672930D-03 -0.34117947D-02
  0.10610552D-03 -0.17789287D-03  0.71787350D-04  0.10136134D-03 -0.65662380D-04
  0.48255764D-04
END DATA
 TOTAL ENERGY =    -76.465283522038 THE VIRIAL(-V/T)=   2.00662527
