 52
GAUSSIAN              5 MOL ORBITALS    126 PRIMITIVES        3 NUCLEI   B3LYP   B3LYP   B3LYP
  O    1    (CENTRE  1)   0.00000000  0.00000000 -0.08633025  CHARGE =  8.0
  H    2    (CENTRE  2)   0.00000000 -1.44255835 -1.00281530  CHARGE =  1.0
  H    3    (CENTRE  3)   0.00000000  1.44255835 -1.09730160  CHARGE =  1.0
CENTRE ASSIGNMENTS    1  1  1  1  1  1  1  1  1  1  1  1  1  1  1  1  1  1  1  1
CENTRE ASSIGNMENTS    1  1  1  1  1  1  1  1  1  1  1  1  1  1  1  1  1  1  1  1
CENTRE ASSIGNMENTS    1  1  1  1  1  1  1  1  1  1  1  1  1  1  1  1  1  1  1  1
CENTRE ASSIGNMENTS    1  1  1  1  1  1  1  1  1  1  1  1  2  2  2  2  2  2  2  2
CENTRE ASSIGNMENTS    2  2  2  2  2  2  2  2  2  2  2  2  2  2  2  2  2  2  2  3
CENTRE ASSIGNMENTS    3  3  3  3  3  3  3  3  3  3  3  3  3  3  3  3  3  3  3  3
CENTRE ASSIGNMENTS    3  3  3  3  3  3
TYPE ASSIGNMENTS      1  1  1  1  1  1  1  1  1  1  1  1  1  1  1  1  2  2  2  3
TYPE ASSIGNMENTS      3  3  4  4  4  2  3  4  2  3  4  2  3  4  5  6  7  8  9 10
TYPE ASSIGNMENTS      5  6  7  8  9 10  5  6  7  8  9 10 11 12 13 17 14 15 18 19
TYPE ASSIGNMENTS     16 20 11 12 13 17 14 15 18 19 16 20  1  1  1  1  1  1  2  3
TYPE ASSIGNMENTS      4  2  3  4  2  3  4  5  6  7  8  9 10  5  6  7  8  9 10  1
TYPE ASSIGNMENTS      1  1  1  1  1  2  3  4  2  3  4  2  3  4  5  6  7  8  9 10
TYPE ASSIGNMENTS      5  6  7  8  9 10
EXPONENTS  0.1533000D+05 0.2299000D+04 0.5224000D+03 0.1473000D+03 0.4755000D+02
EXPONENTS  0.1676000D+02 0.6207000D+01 0.5224000D+03 0.1473000D+03 0.4755000D+02
EXPONENTS  0.1676000D+02 0.6207000D+01 0.6882000D+00 0.1752000D+01 0.2384000D+00
EXPONENTS  0.7376000D-01 0.3446000D+02 0.7749000D+01 0.2280000D+01 0.3446000D+02
EXPONENTS  0.7749000D+01 0.2280000D+01 0.3446000D+02 0.7749000D+01 0.2280000D+01
EXPONENTS  0.7156000D+00 0.7156000D+00 0.7156000D+00 0.2140000D+00 0.2140000D+00
EXPONENTS  0.2140000D+00 0.5974000D-01 0.5974000D-01 0.5974000D-01 0.2314000D+01
EXPONENTS  0.2314000D+01 0.2314000D+01 0.2314000D+01 0.2314000D+01 0.2314000D+01
EXPONENTS  0.6450000D+00 0.6450000D+00 0.6450000D+00 0.6450000D+00 0.6450000D+00
EXPONENTS  0.6450000D+00 0.2140000D+00 0.2140000D+00 0.2140000D+00 0.2140000D+00
EXPONENTS  0.2140000D+00 0.2140000D+00 0.1428000D+01 0.1428000D+01 0.1428000D+01
EXPONENTS  0.1428000D+01 0.1428000D+01 0.1428000D+01 0.1428000D+01 0.1428000D+01
EXPONENTS  0.1428000D+01 0.1428000D+01 0.5000000D+00 0.5000000D+00 0.5000000D+00
EXPONENTS  0.5000000D+00 0.5000000D+00 0.5000000D+00 0.5000000D+00 0.5000000D+00
EXPONENTS  0.5000000D+00 0.5000000D+00 0.3387000D+02 0.5095000D+01 0.1159000D+01
EXPONENTS  0.3258000D+00 0.1027000D+00 0.2526000D-01 0.1407000D+01 0.1407000D+01
EXPONENTS  0.1407000D+01 0.3880000D+00 0.3880000D+00 0.3880000D+00 0.1020000D+00
EXPONENTS  0.1020000D+00 0.1020000D+00 0.1057000D+01 0.1057000D+01 0.1057000D+01
EXPONENTS  0.1057000D+01 0.1057000D+01 0.1057000D+01 0.2470000D+00 0.2470000D+00
EXPONENTS  0.2470000D+00 0.2470000D+00 0.2470000D+00 0.2470000D+00 0.3387000D+02
EXPONENTS  0.5095000D+01 0.1159000D+01 0.3258000D+00 0.1027000D+00 0.2526000D-01
EXPONENTS  0.1407000D+01 0.1407000D+01 0.1407000D+01 0.3880000D+00 0.3880000D+00
EXPONENTS  0.3880000D+00 0.1020000D+00 0.1020000D+00 0.1020000D+00 0.1057000D+01
EXPONENTS  0.1057000D+01 0.1057000D+01 0.1057000D+01 0.1057000D+01 0.1057000D+01
EXPONENTS  0.2470000D+00 0.2470000D+00 0.2470000D+00 0.2470000D+00 0.2470000D+00
EXPONENTS  0.2470000D+00
MO    1     MO 0.0        OCC NO =    2.0000000  ORB. ENERGY =    0.000000
  0.15089903D-01  0.28125098D-01  0.47690056D-01  0.72173828D-01  0.90031161D-01
  0.77260131D-01  0.29586526D-01 -0.45603019D-03 -0.48929046D-02 -0.18036168D-01
 -0.52736697D-01 -0.63550284D-01  0.76553051D-01  0.49368671D-01 -0.26528540D-01
 -0.62733208D-02  0.11359517D+00  0.11014910D+00  0.74305933D-01 -0.51802663D+00
 -0.50231158D+00 -0.33885642D+00 -0.13781025D+01 -0.13362959D+01 -0.90145730D+00
  0.25609896D-01 -0.10074822D+00 -0.29818314D+00  0.41254374D-02 -0.63605480D-02
 -0.34247298D-01  0.12872314D-03 -0.35639323D-04 -0.73807568D-03 -0.44562086D-01
  0.12810963D-01  0.31751123D-01 -0.27389683D-03 -0.47073605D-02  0.46687685D-01
 -0.54711841D-02 -0.45140146D-02  0.99851986D-02  0.87859528D-06 -0.11048232D-02
  0.29408314D-02  0.10589363D-02 -0.16964698D-02  0.63753348D-03  0.57104790D-05
 -0.63866968D-04 -0.11402179D-02 -0.68954569D-03 -0.27641172D-02  0.67879845D-03
  0.16425418D-02  0.39755250D-02  0.17130327D-01  0.42609530D-03  0.43168268D-02
 -0.19166722D-01 -0.46361831D-04 -0.66361528D-05 -0.99303443D-04 -0.73986954D-03
 -0.65738844D-05 -0.52132641D-04 -0.42148752D-03  0.26482343D-04  0.35004297D-03
  0.26410961D-02 -0.25659764D-04  0.43969711D-01  0.79301185D-01  0.11692955D+00
  0.80853950D-01  0.88540361D-02  0.34586368D-04  0.17942662D-02  0.44933978D-01
  0.12693771D-01  0.97842087D-03  0.15089627D-01  0.17260306D-02  0.14579362D-03
 -0.18475841D-03 -0.11958992D-02 -0.69496539D-02  0.11144206D-01 -0.41945516D-02
  0.92020590D-03  0.57882670D-03  0.15698356D-01  0.15757999D-03 -0.25214870D-04
 -0.13236512D-03  0.10223276D-03  0.56556235D-04 -0.10603410D-02  0.17066381D-01
  0.30779921D-01  0.45384976D-01  0.28179143D-01  0.33472814D-02  0.84559589D-04
  0.16767496D-02 -0.21805999D-01 -0.62544968D-02  0.91658094D-03 -0.76704111D-02
 -0.46164487D-02  0.13966422D-03  0.33102613D-04 -0.12414633D-02 -0.10113860D-02
  0.52574587D-02 -0.42460728D-02 -0.83599426D-03  0.58153753D-03  0.34575688D-03
 -0.31614359D-04  0.19086749D-03 -0.15925313D-03 -0.93139422D-04  0.55801624D-04
  0.10263447D-02
MO    2     MO 0.0        OCC NO =    2.0000000  ORB. ENERGY =    0.000000
  0.59774909D-01  0.11141060D+00  0.18891233D+00  0.28589873D+00  0.35663613D+00
  0.30604686D+00  0.11719969D+00 -0.28987308D-03 -0.31101480D-02 -0.11464591D-01
 -0.33521792D-01 -0.40395389D-01  0.48660527D-01  0.36604176D-01  0.38784554D-02
 -0.96861805D-03  0.10805490D+00  0.10477690D+00  0.70681881D-01  0.13738265D+01
  0.13321495D+01  0.89866020D+00 -0.40953901D+00 -0.39711508D+00 -0.26789149D+00
  0.24360850D-01  0.27225862D+00 -0.90026791D-01  0.39242314D-02  0.19280860D-01
 -0.10433128D-01  0.12244505D-03  0.99324150D-04 -0.21658232D-03 -0.14476604D-01
  0.24845513D-02  0.11992052D-01 -0.26053833D-03 -0.44777729D-02 -0.12322134D+00
 -0.23474245D-02 -0.64640031D-03  0.29938248D-02  0.83574440D-06 -0.10509388D-02
 -0.10765299D-01  0.17119687D-03 -0.28942190D-03  0.11822503D-03  0.54319673D-05
 -0.60752046D-04  0.24798929D-02 -0.65591515D-03  0.70121024D-02  0.79267068D-03
  0.15624317D-02 -0.11546451D-01  0.58407556D-02  0.40531376D-03 -0.94898566D-02
 -0.82187677D-02 -0.44100670D-04 -0.63124941D-05  0.18274349D-03 -0.17907880D-03
 -0.62532627D-05 -0.33458543D-03 -0.11487467D-04  0.25190745D-04 -0.21364504D-03
  0.54872387D-03 -0.24408285D-04 -0.27135862D-01 -0.48940645D-01 -0.72162953D-01
 -0.57025212D-01 -0.69766321D-02  0.68707393D-04  0.17067562D-02 -0.18309816D-01
 -0.26502264D-01  0.93070129D-03 -0.71481301D-02 -0.10792486D-01  0.13868297D-03
 -0.73044530D-05 -0.51102259D-03  0.68790035D-02 -0.49951773D-02 -0.18838261D-02
  0.87532558D-03  0.55059614D-03 -0.20860273D-01 -0.13022641D-03  0.22044196D-03
 -0.90215555D-04  0.97246661D-04  0.53797872D-04 -0.57299540D-03  0.47149498D-01
  0.85036062D-01  0.12538562D+00  0.86769453D-01  0.98168935D-02 -0.57705596D-04
  0.15949711D-02 -0.37029339D-01  0.30317360D-01  0.87187742D-03 -0.12826746D-01
  0.10622559D-01  0.13285251D-03  0.59820210D-04 -0.12224718D-03 -0.89860549D-02
  0.82193944D-02  0.76666050D-03 -0.79522112D-03  0.55317476D-03 -0.25485846D-01
  0.93527979D-04 -0.12065130D-03  0.27123321D-04 -0.88596823D-04  0.53080066D-04
 -0.21493327D-03
MO    3     MO 0.0        OCC NO =    2.0000000  ORB. ENERGY =    0.000000
  0.38014443D+00  0.70852671D+00  0.12014066D+01  0.18182012D+01  0.22680626D+01
  0.19463352D+01  0.74534297D+00 -0.17170018D-03 -0.18422302D-02 -0.67908074D-02
 -0.19855923D-01 -0.23927352D-01  0.28823031D-01  0.62161866D-01  0.23413076D-01
  0.29388109D-02  0.98958321D+00  0.95956284D+00  0.64731542D+00 -0.18719127D+00
 -0.18151256D+00 -0.12244730D+00  0.36146135D+00  0.35049592D+00  0.23644248D+00
  0.22310037D+00 -0.37694789D-01  0.77966833D-01  0.35938709D-01 -0.28484566D-02
  0.99390459D-02  0.11213704D-02 -0.18246221D-04  0.20704517D-03  0.41959807D-02
  0.59872892D-02 -0.10183270D-01 -0.23860496D-02 -0.41008126D-01  0.17351030D-01
  0.53913532D-03  0.19974070D-02 -0.25365423D-02  0.76538744D-05 -0.96246570D-02
  0.16123498D-02 -0.20939196D-03  0.33966061D-03 -0.13026865D-03  0.49746783D-04
 -0.55637648D-03 -0.28940932D-03 -0.60069707D-02 -0.10816779D-02  0.93044524D-03
  0.14308987D-01  0.19181119D-02 -0.21026263D-02  0.37119251D-02  0.13269217D-02
 -0.68870942D-03 -0.40388065D-03 -0.57810782D-04  0.55553057D-05 -0.96991496D-04
 -0.57268331D-04  0.27596806D-04 -0.18942036D-03  0.23070068D-03 -0.44262723D-04
  0.48039485D-03 -0.22353479D-03  0.15752636D-02  0.28410527D-02  0.41891306D-02
 -0.26896169D-02 -0.15406708D-02 -0.50658465D-04  0.15630733D-01 -0.13165952D-02
  0.62291173D-02  0.85235041D-02 -0.26275569D-02  0.17368251D-02  0.12700798D-02
 -0.16808841D-03  0.27097833D-03  0.75886759D-03 -0.22913622D-02  0.15324946D-02
  0.80163649D-02  0.50424433D-02 -0.93281638D-04  0.68321947D-04 -0.11832176D-03
  0.49999812D-04  0.89059972D-03  0.49268910D-03  0.17618064D-03 -0.89816256D-02
 -0.16198732D-01 -0.23885020D-01 -0.21965496D-01 -0.37271868D-02 -0.26070567D-04
  0.14606988D-01  0.84554488D-02 -0.17628420D-02  0.79847861D-02  0.49662801D-02
 -0.12546585D-02  0.12166835D-02  0.13962673D-03  0.21532639D-03  0.27363880D-02
 -0.36740780D-02  0.93769005D-03 -0.72827560D-02  0.50660586D-02  0.63204356D-02
  0.42514989D-04 -0.68081861D-04  0.25566872D-04 -0.81138319D-03  0.48611532D-03
 -0.49179266D-04
MO    4     MO 0.0        OCC NO =    2.0000000  ORB. ENERGY =    0.000000
 -0.29273162D+00 -0.54560360D+00 -0.92514758D+00 -0.14001125D+01 -0.17465300D+01
 -0.14987826D+01 -0.57395410D+00 -0.14249075D-02 -0.15288322D-01 -0.56355633D-01
 -0.16478057D+00 -0.19856859D+00  0.23919691D+00  0.11262786D+00  0.83784734D-01
  0.75277578D-02  0.57253483D+00  0.55516620D+00  0.37451184D+00 -0.34895801D-01
 -0.33837189D-01 -0.22826368D-01  0.61304790D+00  0.59445025D+00  0.40101263D+00
  0.12907730D+00 -0.53221331D-02  0.13199180D+00  0.20792756D-01  0.21172725D-03
  0.20865996D-01  0.64878183D-03  0.15834950D-04  0.43910051D-03 -0.15687177D-02
  0.19887537D-01 -0.18318819D-01 -0.13804767D-02 -0.23725726D-01  0.20471687D-02
 -0.18137956D-02  0.61068482D-02 -0.42930526D-02  0.44282377D-05 -0.55684568D-02
 -0.91295684D-03 -0.22092603D-03  0.44302222D-03 -0.22209619D-03  0.28781578D-04
 -0.32189806D-03 -0.16800656D-03 -0.34754025D-02 -0.20417620D-03  0.14644028D-02
  0.82786302D-02 -0.74514636D-04 -0.31277011D-02  0.21475773D-02  0.68704322D-03
 -0.12655072D-02 -0.23366983D-03 -0.33447098D-04  0.26353601D-04 -0.11316764D-03
 -0.33133257D-04 -0.62181260D-04  0.19241422D-04  0.13347455D-03 -0.16879544D-04
  0.32026149D-03 -0.12932864D-03  0.90045524D-02  0.16240081D-01  0.23945990D-01
 -0.40061336D-02 -0.50623414D-02 -0.10634179D-03  0.90433416D-02  0.11363710D-01
  0.18161616D-01  0.49313720D-02 -0.24481230D-02  0.44796800D-02  0.73481936D-03
 -0.37530554D-03  0.53552112D-03 -0.18726583D-02 -0.38923049D-03  0.22618887D-02
  0.46379608D-02  0.29173640D-02  0.85653385D-02  0.13876061D-03 -0.26219560D-03
  0.12343499D-03  0.51526679D-03  0.28505099D-03  0.21327820D-03  0.56103805D-02
  0.10118552D-01  0.14919799D-01 -0.10072417D-01 -0.60088405D-02 -0.11478883D-03
  0.84510420D-02 -0.73122734D-02  0.15113425D-01  0.46196905D-02  0.37988996D-02
  0.31213765D-02  0.70392635D-03  0.46855304D-03  0.45110408D-03 -0.85708577D-03
 -0.15824969D-02  0.24395827D-02 -0.42135228D-02  0.29310269D-02 -0.52741361D-02
  0.14840382D-03 -0.28181796D-03  0.13341413D-03 -0.46943514D-03  0.28124765D-03
 -0.10688802D-03
MO    5     MO 0.0        OCC NO =    2.0000000  ORB. ENERGY =    0.000000
 -0.15887197D+00 -0.29611124D+00 -0.50209822D+00 -0.75987226D+00 -0.94788075D+00
 -0.81342270D+00 -0.31149768D+00  0.78340437D-03  0.84054147D-02  0.30983941D-01
  0.90595227D-01  0.10917165D+00 -0.13150883D+00 -0.99358664D-01 -0.50239251D-01
 -0.46914432D-02  0.13643603D+01  0.13229705D+01  0.89246810D+00  0.84740841D-01
  0.82170111D-01  0.55431471D-01 -0.37225423D+00 -0.36096138D+00 -0.24350242D+00
  0.30759342D+00  0.16399532D-01 -0.79982226D-01  0.49549493D-01  0.97972638D-03
 -0.12287330D-01  0.15460582D-02  0.16902338D-05 -0.25582990D-03  0.24716192D-02
 -0.13951564D-01  0.11479945D-01 -0.32896994D-02 -0.56538810D-01 -0.75721852D-02
  0.10115310D-02 -0.35843661D-02  0.25728351D-02  0.10552566D-04 -0.13269728D-01
 -0.17860064D-03  0.14285810D-03 -0.26809918D-03  0.12524108D-03  0.68586991D-04
 -0.76708857D-03  0.17894312D-03 -0.82819435D-02  0.54502215D-03 -0.14086710D-02
  0.19728117D-01 -0.77649501D-03  0.94872077D-03  0.51177133D-02 -0.85857143D-03
  0.32772922D-02 -0.55683919D-03 -0.79705004D-04 -0.21293298D-04  0.19362152D-03
 -0.78957116D-04  0.36916358D-04  0.16531634D-03  0.31807213D-03  0.26963536D-04
 -0.74618091D-03 -0.30819237D-03 -0.64329476D-02 -0.11602086D-01 -0.17107269D-01
  0.14164047D-02  0.30571634D-02  0.73046782D-04  0.21550437D-01 -0.61047342D-02
 -0.11097244D-01  0.11751544D-01  0.22428854D-02 -0.24285327D-02  0.17510871D-02
  0.29536913D-03 -0.28122574D-03  0.26923719D-03  0.12930361D-02 -0.15622733D-02
  0.11052340D-01  0.69521281D-02 -0.31815990D-02 -0.11058975D-03  0.18048737D-03
 -0.69897618D-04  0.12278895D-02  0.67928136D-03 -0.83621627D-04 -0.99494620D-03
 -0.17944264D-02 -0.26458807D-02  0.10940377D-01  0.41687182D-02  0.64608603D-04
  0.20138977D-01  0.16838798D-02 -0.69438714D-02  0.11008801D-01 -0.35417591D-02
 -0.85675392D-03  0.16774685D-02 -0.30538809D-03 -0.23243314D-03 -0.82917713D-03
  0.22402241D-02 -0.14110470D-02 -0.10040897D-01  0.69846871D-02 -0.38140667D-03
 -0.97887191D-04  0.16130534D-03 -0.63418153D-04 -0.11186720D-02  0.67021795D-03
  0.12094231D-04
END DATA
 TOTAL ENERGY =    -76.461105397739 THE VIRIAL(-V/T)=   2.00371314
