 52
GAUSSIAN              5 MOL ORBITALS    126 PRIMITIVES        3 NUCLEI   B3LYP   B3LYP   B3LYP
  O    1    (CENTRE  1)   0.00000000  0.00000000  0.10264236  CHARGE =  8.0
  H    2    (CENTRE  2)   0.00000000 -1.44255835 -1.19178791  CHARGE =  1.0
  H    3    (CENTRE  3)   0.00000000  1.44255835 -1.09730160  CHARGE =  1.0
CENTRE ASSIGNMENTS    1  1  1  1  1  1  1  1  1  1  1  1  1  1  1  1  1  1  1  1
CENTRE ASSIGNMENTS    1  1  1  1  1  1  1  1  1  1  1  1  1  1  1  1  1  1  1  1
CENTRE ASSIGNMENTS    1  1  1  1  1  1  1  1  1  1  1  1  1  1  1  1  1  1  1  1
CENTRE ASSIGNMENTS    1  1  1  1  1  1  1  1  1  1  1  1  2  2  2  2  2  2  2  2
CENTRE ASSIGNMENTS    2  2  2  2  2  2  2  2  2  2  2  2  2  2  2  2  2  2  2  3
CENTRE ASSIGNMENTS    3  3  3  3  3  3  3  3  3  3  3  3  3  3  3  3  3  3  3  3
CENTRE ASSIGNMENTS    3  3  3  3  3  3
TYPE ASSIGNMENTS      1  1  1  1  1  1  1  1  1  1  1  1  1  1  1  1  2  2  2  3
TYPE ASSIGNMENTS      3  3  4  4  4  2  3  4  2  3  4  2  3  4  5  6  7  8  9 10
TYPE ASSIGNMENTS      5  6  7  8  9 10  5  6  7  8  9 10 11 12 13 17 14 15 18 19
TYPE ASSIGNMENTS     16 20 11 12 13 17 14 15 18 19 16 20  1  1  1  1  1  1  2  3
TYPE ASSIGNMENTS      4  2  3  4  2  3  4  5  6  7  8  9 10  5  6  7  8  9 10  1
TYPE ASSIGNMENTS      1  1  1  1  1  2  3  4  2  3  4  2  3  4  5  6  7  8  9 10
TYPE ASSIGNMENTS      5  6  7  8  9 10
EXPONENTS  0.1533000D+05 0.2299000D+04 0.5224000D+03 0.1473000D+03 0.4755000D+02
EXPONENTS  0.1676000D+02 0.6207000D+01 0.5224000D+03 0.1473000D+03 0.4755000D+02
EXPONENTS  0.1676000D+02 0.6207000D+01 0.6882000D+00 0.1752000D+01 0.2384000D+00
EXPONENTS  0.7376000D-01 0.3446000D+02 0.7749000D+01 0.2280000D+01 0.3446000D+02
EXPONENTS  0.7749000D+01 0.2280000D+01 0.3446000D+02 0.7749000D+01 0.2280000D+01
EXPONENTS  0.7156000D+00 0.7156000D+00 0.7156000D+00 0.2140000D+00 0.2140000D+00
EXPONENTS  0.2140000D+00 0.5974000D-01 0.5974000D-01 0.5974000D-01 0.2314000D+01
EXPONENTS  0.2314000D+01 0.2314000D+01 0.2314000D+01 0.2314000D+01 0.2314000D+01
EXPONENTS  0.6450000D+00 0.6450000D+00 0.6450000D+00 0.6450000D+00 0.6450000D+00
EXPONENTS  0.6450000D+00 0.2140000D+00 0.2140000D+00 0.2140000D+00 0.2140000D+00
EXPONENTS  0.2140000D+00 0.2140000D+00 0.1428000D+01 0.1428000D+01 0.1428000D+01
EXPONENTS  0.1428000D+01 0.1428000D+01 0.1428000D+01 0.1428000D+01 0.1428000D+01
EXPONENTS  0.1428000D+01 0.1428000D+01 0.5000000D+00 0.5000000D+00 0.5000000D+00
EXPONENTS  0.5000000D+00 0.5000000D+00 0.5000000D+00 0.5000000D+00 0.5000000D+00
EXPONENTS  0.5000000D+00 0.5000000D+00 0.3387000D+02 0.5095000D+01 0.1159000D+01
EXPONENTS  0.3258000D+00 0.1027000D+00 0.2526000D-01 0.1407000D+01 0.1407000D+01
EXPONENTS  0.1407000D+01 0.3880000D+00 0.3880000D+00 0.3880000D+00 0.1020000D+00
EXPONENTS  0.1020000D+00 0.1020000D+00 0.1057000D+01 0.1057000D+01 0.1057000D+01
EXPONENTS  0.1057000D+01 0.1057000D+01 0.1057000D+01 0.2470000D+00 0.2470000D+00
EXPONENTS  0.2470000D+00 0.2470000D+00 0.2470000D+00 0.2470000D+00 0.3387000D+02
EXPONENTS  0.5095000D+01 0.1159000D+01 0.3258000D+00 0.1027000D+00 0.2526000D-01
EXPONENTS  0.1407000D+01 0.1407000D+01 0.1407000D+01 0.3880000D+00 0.3880000D+00
EXPONENTS  0.3880000D+00 0.1020000D+00 0.1020000D+00 0.1020000D+00 0.1057000D+01
EXPONENTS  0.1057000D+01 0.1057000D+01 0.1057000D+01 0.1057000D+01 0.1057000D+01
EXPONENTS  0.2470000D+00 0.2470000D+00 0.2470000D+00 0.2470000D+00 0.2470000D+00
EXPONENTS  0.2470000D+00
MO    1     MO 0.0        OCC NO =    2.0000000  ORB. ENERGY =    0.000000
 -0.88898507D-01 -0.16569220D+00 -0.28095441D+00 -0.42519462D+00 -0.53039678D+00
 -0.45515935D+00 -0.17430185D+00 -0.71647096D-03 -0.76872632D-02 -0.28336699D-01
 -0.82854847D-01 -0.99844120D-01  0.12027282D+00  0.61897768D-01 -0.34026052D-02
 -0.51935094D-02 -0.19790287D+00 -0.19189922D+00 -0.12945408D+00 -0.18201160D+00
 -0.17649003D+00 -0.11905913D+00 -0.12592930D+01 -0.12210907D+01 -0.82374054D+00
 -0.44710127D-01 -0.40964159D-01 -0.27811173D+00 -0.74850938D-02 -0.55267318D-02
 -0.32944260D-01 -0.24578731D-03 -0.64780749D-04 -0.58706936D-03 -0.43022166D-01
  0.55988556D-02  0.37423310D-01 -0.42138894D-03  0.77860834D-02  0.15613234D-01
 -0.83168097D-02 -0.29095466D-02  0.11226356D-01 -0.42463886D-04  0.21873032D-02
  0.39918356D-02  0.31679485D-03 -0.89367243D-03  0.57687758D-03  0.72027021D-05
  0.16718639D-03  0.32660467D-03  0.11581758D-02 -0.63029334D-03 -0.12730261D-02
 -0.21424822D-02  0.27428430D-02  0.18783393D-01 -0.13320452D-02 -0.85196297D-03
 -0.14964315D-01  0.36955522D-04  0.69753997D-04  0.29635525D-04 -0.68160414D-03
 -0.10988291D-03  0.33935557D-03  0.96354654D-03 -0.99379081D-04 -0.42826214D-03
  0.10812659D-02 -0.46171841D-04  0.36270291D-01  0.65414964D-01  0.96454327D-01
  0.59681744D-01  0.84934504D-02  0.45170222D-04 -0.23892707D-02  0.27620632D-01
  0.12322799D-01 -0.13057476D-02  0.11036161D-01  0.37918227D-02 -0.20781701D-03
  0.18020344D-03 -0.60376077D-03 -0.45846245D-02  0.51303275D-02 -0.54570303D-03
 -0.11669549D-02 -0.98877349D-03  0.11588824D-01 -0.28787829D-03  0.24422051D-03
  0.43657782D-04 -0.11134663D-03 -0.74219513D-04  0.31252457D-03  0.26985121D-01
  0.48668777D-01  0.71762084D-01  0.43580684D-01  0.56564424D-02  0.81056518D-04
 -0.25736090D-02 -0.26920634D-01  0.55420760D-02 -0.14000958D-02 -0.10304399D-01
  0.58164190D-03 -0.21908201D-03 -0.22304367D-03 -0.72351329D-03 -0.35412995D-02
  0.58878825D-02 -0.23465830D-02  0.12710183D-02 -0.10050074D-02 -0.82246709D-02
 -0.14429784D-03  0.25076834D-03 -0.10647050D-03  0.12561796D-03 -0.81674877D-04
  0.16194441D-03
MO    2     MO 0.0        OCC NO =    2.0000000  ORB. ENERGY =    0.000000
 -0.30072480D+00 -0.56050159D+00 -0.95040920D+00 -0.14383433D+01 -0.17942199D+01
 -0.15397076D+01 -0.58962620D+00 -0.11328516D-03 -0.12154754D-02 -0.44804712D-02
 -0.13100635D-01 -0.15786902D-01  0.19016996D-01 -0.23662099D-01 -0.12710178D-03
 -0.27467047D-03  0.51005072D-01  0.49457763D-01  0.33363915D-01  0.11739359D+01
  0.11383229D+01  0.76790590D+00 -0.48246843D-01 -0.46783208D-01 -0.31559676D-01
  0.11523043D-01  0.25101000D+00 -0.10506454D-01  0.19291168D-02  0.28268568D-01
 -0.46932466D-03  0.63346222D-04  0.34757720D-03 -0.11165251D-04 -0.24723942D-02
  0.30216711D-02 -0.54927690D-03  0.10860364D-03 -0.20066901D-02 -0.10964953D+00
 -0.53724348D-03  0.31787558D-03  0.21936790D-03  0.10944124D-04 -0.56372885D-03
 -0.18688088D-01  0.83578404D-04 -0.77925981D-04 -0.56524230D-05 -0.18563366D-05
 -0.43088580D-04 -0.29957832D-03 -0.29849411D-03  0.45249857D-02 -0.22842514D-03
  0.55217723D-03 -0.13742027D-01  0.15195214D-03  0.34330509D-03  0.16706939D-03
  0.53332329D-03 -0.95244653D-05 -0.17977544D-04  0.78290364D-04 -0.14476152D-04
  0.28319881D-04 -0.11435784D-02  0.87722513D-04  0.25612752D-04  0.90870731D-03
 -0.44294058D-04  0.11899767D-04 -0.26327879D-01 -0.47483414D-01 -0.70014267D-01
 -0.47458313D-01 -0.66328170D-02  0.11909119D-03  0.61578149D-03 -0.84424438D-02
 -0.18297106D-01  0.33652745D-03 -0.32478788D-02 -0.78621004D-02  0.53560220D-04
  0.31844225D-03 -0.17539806D-03  0.38847340D-02  0.23787364D-05 -0.38871128D-02
  0.30075671D-03  0.25483442D-03 -0.11173334D-01  0.18525357D-03  0.83896554D-04
 -0.26915012D-03  0.28697121D-04  0.19128432D-04 -0.69922839D-03  0.31238869D-01
  0.56340587D-01  0.83074163D-01  0.55595503D-01  0.70097668D-02 -0.11719071D-03
  0.66329058D-03 -0.14379296D-01  0.21802106D-01  0.36084362D-03 -0.53706211D-02
  0.88167675D-02  0.56463526D-04  0.35328463D-03  0.11834225D-03 -0.56123360D-02
  0.18731280D-02  0.37392081D-02 -0.32757676D-03  0.25901836D-03 -0.16408351D-01
 -0.14237168D-03 -0.91763900D-04  0.23413558D-03 -0.32375242D-04  0.21049887D-04
 -0.57531221D-03
MO    3     MO 0.0        OCC NO =    2.0000000  ORB. ENERGY =    0.000000
  0.35893072D+00  0.66898785D+00  0.11343629D+01  0.17167376D+01  0.21414949D+01
  0.18377212D+01  0.70374960D+00  0.96673273D-03  0.10372408D-01  0.38234648D-01
  0.11179587D+00  0.13471946D+00 -0.16228386D+00 -0.57513308D-01 -0.70855496D-01
 -0.73809498D-02 -0.52574718D-01 -0.50979791D-01 -0.34390666D-01  0.68710692D+00
  0.66626259D+00  0.44945680D+00 -0.72520910D+00 -0.70320888D+00 -0.47438056D+00
 -0.11877656D-01  0.14707624D+00 -0.15277360D+00 -0.19884840D-02  0.16602215D-01
 -0.20077516D-01 -0.65295658D-04  0.20842967D-03 -0.35304464D-03 -0.11031471D-01
 -0.65330374D-02  0.17564508D-01 -0.11194585D-03  0.20684446D-02 -0.64522852D-01
  0.69923890D-03 -0.55360465D-02  0.48368076D-02 -0.11280922D-04  0.58107721D-03
 -0.11564937D-01  0.42661235D-03 -0.66192361D-03  0.23531125D-03  0.19134641D-05
  0.44414601D-04 -0.18145084D-03  0.30768006D-03  0.25281090D-02 -0.21262886D-02
 -0.56917011D-03 -0.81956490D-02  0.60096881D-02 -0.35387007D-03  0.61132191D-03
  0.36917774D-03  0.98175742D-05  0.18530791D-04  0.31517992D-04 -0.37362695D-03
 -0.29191406D-04 -0.67627594D-03 -0.19664064D-03 -0.26400967D-04  0.58172197D-03
  0.13175215D-02 -0.12265974D-04 -0.11414646D-01 -0.20586783D-01 -0.30355200D-01
 -0.72453695D-02  0.27498880D-02  0.18443784D-03 -0.63473174D-03 -0.32108521D-02
 -0.17733542D-01 -0.34688385D-03  0.33008418D-02 -0.50060026D-02 -0.55208499D-04
  0.60911852D-03 -0.38921063D-03  0.18837444D-02  0.20030940D-02 -0.38868385D-02
 -0.31001229D-03 -0.26267677D-03 -0.67013590D-02 -0.46443299D-04  0.23362878D-03
 -0.18718548D-03 -0.29580255D-04 -0.19717096D-04 -0.30086218D-03  0.21205630D-01
  0.38245227D-01  0.56392565D-01  0.51571132D-01  0.10185219D-01  0.39262270D-04
 -0.68370289D-03 -0.93827024D-02  0.44190593D-02 -0.37194833D-03 -0.78877030D-02
  0.39923223D-02 -0.58201152D-04 -0.12786230D-03 -0.28822552D-03 -0.32599518D-02
  0.28707836D-02  0.38916819D-03  0.33765771D-03 -0.26698947D-03 -0.79013669D-02
 -0.19203825D-03  0.95082276D-04  0.96955973D-04  0.33371567D-04 -0.21697682D-04
 -0.31393547D-03
MO    4     MO 0.0        OCC NO =    2.0000000  ORB. ENERGY =    0.000000
  0.17006066D+00  0.31696511D+00  0.53745888D+00  0.81338686D+00  0.10146360D+01
  0.87070864D+00  0.33343515D+00 -0.12205215D-02 -0.13095395D-01 -0.48272091D-01
 -0.14114476D+00 -0.17008630D+00  0.20488698D+00  0.14701790D+00  0.79238628D-01
  0.72708677D-02 -0.47796467D+00 -0.46346495D+00 -0.31265072D+00  0.49758920D+00
  0.48249414D+00  0.32548770D+00  0.59663321D+00  0.57853351D+00  0.39027529D+00
 -0.10798156D+00  0.10693790D+00  0.12747624D+00 -0.18077607D-01  0.12155760D-01
  0.18479313D-01 -0.59361265D-03  0.15393897D-03  0.31523364D-03  0.88482060D-03
  0.14227972D-01 -0.15112793D-01 -0.10177165D-02  0.18804541D-01 -0.47112490D-01
 -0.17178437D-02  0.56091247D-02 -0.38912809D-02 -0.10255656D-03  0.52826603D-02
 -0.78406314D-02 -0.22891330D-03  0.45236956D-03 -0.22345626D-03  0.17395589D-04
  0.40377982D-03 -0.17064001D-03  0.27971657D-02  0.20505794D-02  0.23672920D-02
 -0.51744110D-02 -0.61800395D-02 -0.30007064D-02 -0.32170860D-02  0.28301339D-04
 -0.41011695D-02  0.89253043D-04  0.16846621D-03  0.34445571D-04  0.14769003D-03
 -0.26538346D-03 -0.45151967D-03 -0.11426947D-03 -0.24001516D-03  0.34818296D-03
 -0.32880060D-03 -0.11151182D-03 -0.11632928D-01 -0.20980465D-01 -0.30935684D-01
 -0.35675860D-01 -0.91983205D-02 -0.56759181D-04 -0.57704417D-02 -0.17332147D-02
  0.20848246D-02 -0.31535733D-02 -0.56721582D-02 -0.22215649D-02 -0.50190877D-03
 -0.30243388D-03  0.16670222D-03  0.22215993D-02 -0.20957369D-02 -0.12586245D-03
 -0.28183684D-02 -0.23880340D-02 -0.54699344D-02  0.20752919D-03 -0.14298943D-03
 -0.64539759D-04 -0.26891855D-03 -0.17925108D-03 -0.37435737D-03  0.13979690D-01
  0.25212947D-01  0.37176475D-01  0.82952719D-02 -0.34039981D-02 -0.16720339D-03
 -0.62156458D-02 -0.84430582D-02  0.19843161D-01 -0.33814382D-02  0.22891475D-02
  0.49440170D-02 -0.52911542D-03  0.59695528D-03  0.30305940D-03 -0.16896345D-02
 -0.15177646D-02  0.32073991D-02  0.30696970D-02 -0.24272414D-02 -0.62934028D-02
  0.58309623D-04 -0.21334729D-03  0.15503767D-03  0.30338594D-03 -0.19725689D-03
 -0.21118118D-03
MO    5     MO 0.0        OCC NO =    2.0000000  ORB. ENERGY =    0.000000
  0.56957613D-01  0.10615963D+00  0.18000856D+00  0.27242382D+00  0.33982724D+00
  0.29162233D+00  0.11167586D+00 -0.38896499D-03 -0.41733391D-02 -0.15383714D-01
 -0.44981077D-01 -0.54204385D-01  0.65294925D-01  0.46952602D-01  0.19479349D-01
  0.12062850D-02  0.17188025D+01  0.16666602D+01  0.11243192D+01  0.10359376D+00
  0.10045110D+00  0.67763716D-01  0.16584185D-03  0.16081081D-03  0.10848202D-03
  0.38831108D+00  0.22070785D-01 -0.93444096D-03  0.65008646D-01  0.24128916D-02
  0.74532317D-03  0.21346827D-02  0.31409672D-04  0.95974340D-05 -0.49715829D-02
  0.43116672D-02  0.65991566D-03  0.36597971D-02 -0.67622766D-01 -0.10023136D-01
 -0.13979644D-02  0.10460111D-02  0.35195334D-03  0.36880229D-03 -0.18996906D-01
 -0.15198867D-02 -0.16611423D-04  0.49630474D-05  0.11648376D-04 -0.62556052D-04
 -0.14520273D-02 -0.65066257D-05 -0.10058851D-01  0.44070510D-03  0.45346002D-03
  0.18607632D-01 -0.12456317D-02  0.15075979D-02  0.11568921D-01 -0.76483592D-04
 -0.28679780D-02 -0.32096170D-03 -0.60581912D-03  0.11631683D-04 -0.48409156D-04
  0.95434200D-03 -0.73235712D-04  0.70548674D-04  0.86311538D-03  0.38340664D-04
  0.74678795D-04  0.40100619D-03  0.13733979D-02  0.24769797D-02  0.36523051D-02
 -0.18622970D-02 -0.12989928D-02 -0.84751179D-05  0.20751010D-01  0.28505804D-02
  0.19991238D-02  0.11340524D-01 -0.10926450D-03 -0.10100004D-03  0.18049076D-02
 -0.54170196D-04 -0.29860713D-04  0.32250251D-04  0.69123216D-04 -0.10137347D-03
  0.10135098D-01  0.85875779D-02 -0.60157713D-04  0.17645463D-04 -0.69863409D-05
 -0.10659122D-04  0.96705448D-03  0.64460248D-03 -0.56570570D-04  0.67161702D-02
  0.12112890D-01  0.17860449D-01  0.72523019D-02 -0.19176912D-03 -0.32484518D-04
  0.22352003D-01 -0.53077827D-02  0.56442992D-02  0.12159946D-01 -0.63177902D-03
  0.13022843D-02  0.19027451D-02  0.12592542D-03 -0.11358549D-04 -0.81076936D-03
  0.28809746D-03  0.52267190D-03 -0.11038897D-01  0.87285711D-02 -0.24518310D-02
 -0.20489244D-05 -0.24822716D-04  0.26871640D-04 -0.10910022D-02  0.70935293D-03
 -0.32609393D-04
END DATA
 TOTAL ENERGY =    -76.461532643218 THE VIRIAL(-V/T)=   2.00787758
