 53
GAUSSIAN              5 MOL ORBITALS    126 PRIMITIVES        3 NUCLEI   B3LYP   B3LYP   B3LYP
  O    1    (CENTRE  1)   0.00000000  0.00000000  0.00815606  CHARGE =  8.0
  H    2    (CENTRE  2)   0.09448631 -1.44255835 -1.00281530  CHARGE =  1.0
  H    3    (CENTRE  3)   0.00000000  1.44255835 -1.09730160  CHARGE =  1.0
CENTRE ASSIGNMENTS    1  1  1  1  1  1  1  1  1  1  1  1  1  1  1  1  1  1  1  1
CENTRE ASSIGNMENTS    1  1  1  1  1  1  1  1  1  1  1  1  1  1  1  1  1  1  1  1
CENTRE ASSIGNMENTS    1  1  1  1  1  1  1  1  1  1  1  1  1  1  1  1  1  1  1  1
CENTRE ASSIGNMENTS    1  1  1  1  1  1  1  1  1  1  1  1  2  2  2  2  2  2  2  2
CENTRE ASSIGNMENTS    2  2  2  2  2  2  2  2  2  2  2  2  2  2  2  2  2  2  2  3
CENTRE ASSIGNMENTS    3  3  3  3  3  3  3  3  3  3  3  3  3  3  3  3  3  3  3  3
CENTRE ASSIGNMENTS    3  3  3  3  3  3
TYPE ASSIGNMENTS      1  1  1  1  1  1  1  1  1  1  1  1  1  1  1  1  2  2  2  3
TYPE ASSIGNMENTS      3  3  4  4  4  2  3  4  2  3  4  2  3  4  5  6  7  8  9 10
TYPE ASSIGNMENTS      5  6  7  8  9 10  5  6  7  8  9 10 11 12 13 17 14 15 18 19
TYPE ASSIGNMENTS     16 20 11 12 13 17 14 15 18 19 16 20  1  1  1  1  1  1  2  3
TYPE ASSIGNMENTS      4  2  3  4  2  3  4  5  6  7  8  9 10  5  6  7  8  9 10  1
TYPE ASSIGNMENTS      1  1  1  1  1  2  3  4  2  3  4  2  3  4  5  6  7  8  9 10
TYPE ASSIGNMENTS      5  6  7  8  9 10
EXPONENTS  0.1533000D+05 0.2299000D+04 0.5224000D+03 0.1473000D+03 0.4755000D+02
EXPONENTS  0.1676000D+02 0.6207000D+01 0.5224000D+03 0.1473000D+03 0.4755000D+02
EXPONENTS  0.1676000D+02 0.6207000D+01 0.6882000D+00 0.1752000D+01 0.2384000D+00
EXPONENTS  0.7376000D-01 0.3446000D+02 0.7749000D+01 0.2280000D+01 0.3446000D+02
EXPONENTS  0.7749000D+01 0.2280000D+01 0.3446000D+02 0.7749000D+01 0.2280000D+01
EXPONENTS  0.7156000D+00 0.7156000D+00 0.7156000D+00 0.2140000D+00 0.2140000D+00
EXPONENTS  0.2140000D+00 0.5974000D-01 0.5974000D-01 0.5974000D-01 0.2314000D+01
EXPONENTS  0.2314000D+01 0.2314000D+01 0.2314000D+01 0.2314000D+01 0.2314000D+01
EXPONENTS  0.6450000D+00 0.6450000D+00 0.6450000D+00 0.6450000D+00 0.6450000D+00
EXPONENTS  0.6450000D+00 0.2140000D+00 0.2140000D+00 0.2140000D+00 0.2140000D+00
EXPONENTS  0.2140000D+00 0.2140000D+00 0.1428000D+01 0.1428000D+01 0.1428000D+01
EXPONENTS  0.1428000D+01 0.1428000D+01 0.1428000D+01 0.1428000D+01 0.1428000D+01
EXPONENTS  0.1428000D+01 0.1428000D+01 0.5000000D+00 0.5000000D+00 0.5000000D+00
EXPONENTS  0.5000000D+00 0.5000000D+00 0.5000000D+00 0.5000000D+00 0.5000000D+00
EXPONENTS  0.5000000D+00 0.5000000D+00 0.3387000D+02 0.5095000D+01 0.1159000D+01
EXPONENTS  0.3258000D+00 0.1027000D+00 0.2526000D-01 0.1407000D+01 0.1407000D+01
EXPONENTS  0.1407000D+01 0.3880000D+00 0.3880000D+00 0.3880000D+00 0.1020000D+00
EXPONENTS  0.1020000D+00 0.1020000D+00 0.1057000D+01 0.1057000D+01 0.1057000D+01
EXPONENTS  0.1057000D+01 0.1057000D+01 0.1057000D+01 0.2470000D+00 0.2470000D+00
EXPONENTS  0.2470000D+00 0.2470000D+00 0.2470000D+00 0.2470000D+00 0.3387000D+02
EXPONENTS  0.5095000D+01 0.1159000D+01 0.3258000D+00 0.1027000D+00 0.2526000D-01
EXPONENTS  0.1407000D+01 0.1407000D+01 0.1407000D+01 0.3880000D+00 0.3880000D+00
EXPONENTS  0.3880000D+00 0.1020000D+00 0.1020000D+00 0.1020000D+00 0.1057000D+01
EXPONENTS  0.1057000D+01 0.1057000D+01 0.1057000D+01 0.1057000D+01 0.1057000D+01
EXPONENTS  0.2470000D+00 0.2470000D+00 0.2470000D+00 0.2470000D+00 0.2470000D+00
EXPONENTS  0.2470000D+00
MO    1     MO 0.0        OCC NO =    2.0000000  ORB. ENERGY =    0.000000
  0.95344949D-01  0.17770731D+00  0.30132771D+00  0.45602745D+00  0.56885830D+00
  0.48816505D+00  0.18694128D+00 -0.25042047D-03 -0.26868473D-02 -0.99042251D-02
 -0.28959373D-01 -0.34897453D-01  0.42037680D-01  0.37010144D-01 -0.37341817D-01
 -0.77253857D-02  0.26943367D-01  0.26126002D-01  0.17624447D-01 -0.84369902D-01
 -0.81810424D-01 -0.55188829D-01 -0.14923278D+01 -0.14470559D+01 -0.97617538D+00
  0.53792219D-02 -0.15620931D-01 -0.32375098D+00  0.16185873D-03 -0.64929737D-03
 -0.38294246D-01 -0.14822777D-04 -0.11566761D-04 -0.77674668D-03 -0.45092289D-01
  0.67057875D-02  0.38386501D-01 -0.38262250D-02 -0.59961534D-02  0.81980623D-02
 -0.60185292D-02 -0.54283677D-02  0.11446897D-01 -0.44098430D-04 -0.11269255D-02
  0.12498543D-03  0.88105616D-03 -0.14916675D-02  0.61061133D-03  0.17425413D-03
  0.62734349D-04 -0.30149267D-03 -0.58712225D-03 -0.44326478D-03 -0.51096320D-03
  0.27182792D-03  0.38080253D-03  0.18478952D-01  0.14895388D-02  0.94899181D-03
 -0.16946063D-01  0.23957044D-02  0.12058390D-04 -0.44506210D-04 -0.70413506D-03
 -0.10729645D-03 -0.10210654D-03 -0.31583604D-04  0.71121285D-04  0.23562517D-03
  0.21439888D-02 -0.17008223D-03  0.32058829D-01  0.57819419D-01  0.85254699D-01
  0.60279607D-01  0.79292245D-02  0.82211707D-04 -0.18984942D-02  0.32596098D-01
  0.34299516D-02 -0.75720647D-03  0.12800664D-01 -0.52562311D-03 -0.21168883D-05
  0.37165605D-04 -0.11471017D-02 -0.43522469D-02  0.82152798D-02 -0.38630329D-02
 -0.15778164D-02 -0.56912210D-03  0.88684355D-02 -0.90758395D-05  0.16040892D-03
 -0.15133308D-03 -0.11182907D-04  0.19199560D-04 -0.77989907D-03  0.28765563D-01
  0.51879877D-01  0.76496849D-01  0.53354344D-01  0.77796381D-02  0.97327792D-04
  0.27231659D-03 -0.28004249D-01  0.21596098D-02  0.10036660D-03 -0.11837859D-01
 -0.37364014D-03  0.41345251D-05 -0.17986803D-03 -0.10675368D-02 -0.35541617D-02
  0.69173651D-02 -0.33632034D-02 -0.97607447D-04  0.16413153D-04 -0.73341770D-02
 -0.11511938D-03  0.24828546D-03 -0.13316608D-03 -0.17254388D-04 -0.35781747D-04
  0.52209708D-03
MO    2     MO 0.0        OCC NO =    2.0000000  ORB. ENERGY =    0.000000
  0.12813673D+00  0.23882579D+00  0.40496268D+00  0.61286796D+00  0.76450447D+00
  0.65605858D+00  0.25123558D+00 -0.90053719D-04 -0.96621730D-03 -0.35616589D-02
 -0.10414082D-01 -0.12549475D-01  0.15117172D-01  0.23857028D-01  0.10766324D-01
  0.10269338D-02  0.13860954D+00  0.13440463D+00  0.90668569D-01  0.14151402D+01
  0.13722100D+01  0.92568473D+00  0.60912347D-01  0.59064487D-01  0.39844554D-01
  0.32428334D-01  0.28876061D+00  0.11738007D-01  0.60930104D-02  0.25063212D-01
  0.10701387D-02  0.21337549D-03  0.22281817D-03  0.31952404D-04  0.85229684D-03
 -0.17536592D-02  0.90136239D-03  0.55700612D-02 -0.33609948D-02 -0.13053935D+00
 -0.32581879D-03  0.63151607D-03 -0.30569728D-03  0.59322926D-03 -0.14427671D-02
 -0.15153472D-01 -0.16116658D-03  0.21092294D-03 -0.49756361D-04 -0.85095905D-04
 -0.18655225D-03  0.15158725D-02 -0.68475220D-03  0.68987890D-02  0.63338931D-03
  0.95528550D-03 -0.13659630D-01  0.94609299D-04  0.10989711D-02 -0.70367366D-02
 -0.19947772D-02 -0.46689491D-03 -0.12811583D-04  0.13499753D-03  0.39342884D-04
 -0.10455355D-04 -0.63839293D-03  0.81657808D-04  0.48890104D-04  0.23340035D-03
 -0.19968646D-03 -0.10198287D-03 -0.37453509D-01 -0.67548946D-01 -0.99600881D-01
 -0.72914647D-01 -0.87664215D-02  0.84896691D-04  0.48820414D-02 -0.24951177D-01
 -0.27310090D-01  0.23307176D-02 -0.94362492D-02 -0.10749325D-01  0.23028478D-03
  0.19750960D-03 -0.11899879D-03  0.77362802D-02 -0.57225295D-02 -0.20137508D-02
  0.33736317D-02  0.26372248D-02 -0.22868635D-01 -0.44498679D-04  0.18021019D-03
 -0.13571151D-03  0.15401708D-03  0.11102932D-03 -0.36089399D-03  0.36061160D-01
  0.65037787D-01  0.95898178D-01  0.65300540D-01  0.75398502D-02 -0.11181287D-03
  0.21026574D-02 -0.20805934D-01  0.27686320D-01  0.11891881D-02 -0.70829715D-02
  0.10870370D-01  0.20284044D-03  0.21409804D-03  0.25657284D-03 -0.67486676D-02
  0.33944681D-02  0.33541994D-02 -0.10857455D-02  0.76202768D-03 -0.20326713D-01
 -0.24997174D-04 -0.15146457D-03  0.17646175D-03 -0.10212864D-03  0.89795728D-04
 -0.62091172D-03
MO    3     MO 0.0        OCC NO =    2.0000000  ORB. ENERGY =    0.000000
  0.47153696D+00  0.87886737D+00  0.14902431D+01  0.22553245D+01  0.28133395D+01
  0.24142639D+01  0.92453481D+00  0.72169958D-03  0.77433629D-02  0.28543494D-01
  0.83459501D-01  0.10057276D+00 -0.12115054D+00 -0.18849811D-01 -0.27028297D-01
 -0.11784216D-02 -0.33574135D+00 -0.32555617D+00 -0.21961827D+00 -0.30918319D+00
 -0.29980369D+00 -0.20224580D+00  0.11895608D+00  0.11534738D+00  0.77812663D-01
 -0.75989113D-01 -0.64765520D-01  0.27507332D-01 -0.12413997D-01 -0.63176364D-02
  0.11888153D-02 -0.39795400D-03 -0.71851215D-04  0.15373348D-04  0.94514420D-02
 -0.63515495D-02 -0.30998925D-02  0.60542327D-03  0.14228675D-01  0.28778943D-01
  0.25351078D-02 -0.14507752D-02 -0.10843326D-02  0.11811785D-03  0.37031768D-02
  0.42472629D-02 -0.72582595D-04  0.12049643D-03 -0.47913830D-04 -0.19860408D-04
  0.22756525D-03 -0.18244499D-03  0.20350545D-02 -0.16136933D-02 -0.34795125D-03
 -0.42341802D-02  0.38806689D-02 -0.22469718D-02 -0.18709832D-02  0.96041110D-03
  0.32908255D-02 -0.10112593D-03  0.61591590D-04 -0.12794006D-04  0.43321859D-04
 -0.60799254D-04  0.19295995D-03 -0.27475893D-03 -0.12397552D-03 -0.15457794D-03
  0.14479336D-03  0.79442225D-04 -0.28241955D-02 -0.50935529D-02 -0.75104407D-02
  0.25121591D-02  0.18188590D-02 -0.14550363D-05 -0.46954062D-02 -0.77667894D-02
 -0.19592380D-02 -0.27321602D-02 -0.10390497D-02  0.47340359D-03 -0.42077915D-03
  0.19993849D-04  0.81069107D-04  0.11637854D-02 -0.17222348D-02  0.55844941D-03
 -0.22430199D-02 -0.16081199D-02 -0.27724713D-02 -0.61412955D-06 -0.22445680D-04
  0.23059809D-04 -0.28070255D-03 -0.16991368D-03  0.15082401D-03 -0.18054470D-01
 -0.32561980D-01 -0.48012621D-01 -0.25411918D-01 -0.14077982D-02  0.50989586D-04
 -0.46552810D-02  0.15246878D-01 -0.13153563D-01 -0.25254973D-02  0.36308103D-02
 -0.38765828D-02 -0.39326009D-03 -0.18136563D-03  0.26708793D-04  0.36026841D-02
 -0.26588773D-02 -0.94380681D-03  0.22914965D-02 -0.16971247D-02  0.10575869D-01
 -0.12131291D-04  0.74302476D-04 -0.62171185D-04  0.24019759D-03 -0.15315013D-03
  0.63991303D-04
MO    4     MO 0.0        OCC NO =    2.0000000  ORB. ENERGY =    0.000000
  0.44422283D-01  0.82795832D-01  0.14039197D+00  0.21246832D+00  0.26503748D+00
  0.22744159D+00  0.87098045D-01  0.76794857D-03  0.82395842D-02  0.30372659D-01
  0.88807873D-01  0.10701781D+00 -0.12891429D+00 -0.73985076D-01 -0.45627410D-01
 -0.39532544D-02  0.16052568D+01  0.15565592D+01  0.10500456D+01 -0.50187221D-01
 -0.48664723D-01 -0.32828934D-01 -0.19835762D+00 -0.19234017D+00 -0.12975154D+00
  0.36212644D+00 -0.95311599D-02 -0.40937061D-01  0.59104292D-01 -0.64797336D-04
 -0.64281801D-02  0.18720666D-02  0.43256862D-04 -0.96006906D-04  0.55847491D-02
 -0.10012618D-01  0.44278686D-02 -0.30451761D-02 -0.66050272D-01  0.74229642D-02
  0.21821412D-02 -0.32343727D-02  0.10522315D-02  0.16085831D-03 -0.16418905D-01
  0.10780320D-02  0.17293981D-03 -0.21757563D-03  0.44635823D-04  0.10053507D-03
 -0.10300266D-02 -0.10694528D-03 -0.95611155D-02  0.27769014D-03 -0.82033089D-03
  0.20841555D-01 -0.13113507D-02 -0.13668935D-02  0.78417911D-02  0.47828026D-03
  0.38278861D-02 -0.59853960D-03 -0.25953960D-03 -0.60235047D-05  0.70177321D-04
  0.33208622D-03  0.54181344D-04 -0.81743218D-04  0.44653258D-03 -0.36110830D-04
 -0.12878875D-03 -0.34933613D-03 -0.17047497D-02 -0.30745862D-02 -0.45334756D-02
  0.82443264D-02  0.34880239D-02  0.52035122D-04  0.23929915D-01 -0.26736278D-02
 -0.51381817D-02  0.12763721D-01  0.26215223D-02 -0.21309168D-03  0.19419776D-02
  0.27514483D-03 -0.83702928D-04 -0.82446083D-03  0.13416548D-02 -0.51719402D-03
  0.11857590D-01  0.82017349D-02 -0.26698291D-03 -0.14032965D-03  0.14179117D-03
 -0.14615242D-05  0.12653572D-02  0.74519697D-03  0.78978827D-04 -0.64729018D-02
 -0.11674145D-01 -0.17213520D-01 -0.12453077D-02  0.24188297D-02  0.68505111D-04
  0.22237461D-01  0.66141521D-02 -0.86716180D-02  0.12136587D-01 -0.77629637D-03
 -0.15905424D-02  0.18733758D-02 -0.20304117D-03 -0.90205303D-04  0.84080326D-03
  0.13968224D-03 -0.98048550D-03 -0.11019793D-01  0.81929217D-02  0.32927285D-02
 -0.61282428D-04  0.92634965D-04 -0.31352538D-04 -0.11758304D-02  0.72328421D-03
  0.25688862D-04
MO    5     MO 0.0        OCC NO =    2.0000000  ORB. ENERGY =    0.000000
  0.97070771D-01  0.18092396D+00  0.30678199D+00  0.46428193D+00  0.57915511D+00
  0.49700125D+00  0.19032507D+00 -0.13537670D-02 -0.14525032D-01 -0.53542001D-01
 -0.15655367D+00 -0.18865479D+00  0.22725468D+00  0.15124381D+00  0.83432860D-01
  0.74895060D-02  0.70061766D+00  0.67936345D+00  0.45829457D+00 -0.26173088D+00
 -0.25379091D+00 -0.17120585D+00  0.59155169D+00  0.57360615D+00  0.38695132D+00
  0.15823126D+00 -0.52372132D-01  0.12662875D+00  0.25740106D-01 -0.38796458D-02
  0.19632903D-01  0.82422048D-03 -0.10291986D-04  0.39960864D-03 -0.22781908D-02
  0.19739902D-01 -0.17461711D-01 -0.43472907D-02 -0.29193360D-01  0.25440008D-01
 -0.18514685D-02  0.59940405D-02 -0.41425719D-02 -0.70164968D-03 -0.72884138D-02
  0.20453552D-02 -0.20038181D-03  0.40307076D-03 -0.20268895D-03  0.59874483D-05
 -0.45804529D-03 -0.36221908D-03 -0.43010935D-02 -0.12246942D-02  0.24244844D-02
  0.99724779D-02  0.16710460D-02 -0.24430780D-02  0.29308026D-02  0.20030365D-02
 -0.48303751D-02  0.97843629D-04 -0.11238955D-03  0.14450434D-07 -0.13032373D-03
  0.12360160D-03  0.41822282D-04 -0.14883814D-03  0.21356704D-03 -0.41865633D-04
  0.53980934D-03 -0.20235522D-03  0.14241755D-01  0.25685591D-01  0.37873389D-01
  0.57404766D-02 -0.40982028D-02 -0.13377274D-03  0.92541547D-02  0.13036325D-01
  0.20849249D-01  0.56180638D-02 -0.18321455D-02  0.51127889D-02  0.87377126D-03
 -0.46725200D-03  0.43117042D-03 -0.20794033D-02 -0.65480655D-03  0.27342099D-02
  0.49394594D-02  0.29919140D-02  0.81167928D-02  0.10605698D-03 -0.24166333D-03
  0.13560635D-03  0.59597869D-03  0.33372011D-03  0.17717860D-03 -0.20225483D-02
 -0.36477492D-02 -0.53786041D-02 -0.23404653D-01 -0.75684007D-02 -0.92662260D-04
  0.96090371D-02 -0.14958424D-02  0.85798538D-02  0.52103976D-02  0.57696911D-02
  0.29752150D-03  0.80838283D-03  0.47419203D-03  0.31396444D-03  0.14441754D-02
 -0.31045788D-02  0.16604034D-02 -0.46982627D-02  0.35770041D-02  0.20630460D-02
  0.15061698D-03 -0.22661602D-03  0.75999043D-04 -0.50251115D-03  0.33082262D-03
  0.92702468D-04
END DATA
 TOTAL ENERGY =    -76.465312553001 THE VIRIAL(-V/T)=   2.00526889
