 53
GAUSSIAN              5 MOL ORBITALS    126 PRIMITIVES        3 NUCLEI   B3LYP   B3LYP   B3LYP
  O    1    (CENTRE  1)   0.00000000  0.00000000  0.00815606  CHARGE =  8.0
  H    2    (CENTRE  2)  -0.09448631 -1.44255835 -1.00281530  CHARGE =  1.0
  H    3    (CENTRE  3)   0.00000000  1.44255835 -1.09730160  CHARGE =  1.0
CENTRE ASSIGNMENTS    1  1  1  1  1  1  1  1  1  1  1  1  1  1  1  1  1  1  1  1
CENTRE ASSIGNMENTS    1  1  1  1  1  1  1  1  1  1  1  1  1  1  1  1  1  1  1  1
CENTRE ASSIGNMENTS    1  1  1  1  1  1  1  1  1  1  1  1  1  1  1  1  1  1  1  1
CENTRE ASSIGNMENTS    1  1  1  1  1  1  1  1  1  1  1  1  2  2  2  2  2  2  2  2
CENTRE ASSIGNMENTS    2  2  2  2  2  2  2  2  2  2  2  2  2  2  2  2  2  2  2  3
CENTRE ASSIGNMENTS    3  3  3  3  3  3  3  3  3  3  3  3  3  3  3  3  3  3  3  3
CENTRE ASSIGNMENTS    3  3  3  3  3  3
TYPE ASSIGNMENTS      1  1  1  1  1  1  1  1  1  1  1  1  1  1  1  1  2  2  2  3
TYPE ASSIGNMENTS      3  3  4  4  4  2  3  4  2  3  4  2  3  4  5  6  7  8  9 10
TYPE ASSIGNMENTS      5  6  7  8  9 10  5  6  7  8  9 10 11 12 13 17 14 15 18 19
TYPE ASSIGNMENTS     16 20 11 12 13 17 14 15 18 19 16 20  1  1  1  1  1  1  2  3
TYPE ASSIGNMENTS      4  2  3  4  2  3  4  5  6  7  8  9 10  5  6  7  8  9 10  1
TYPE ASSIGNMENTS      1  1  1  1  1  2  3  4  2  3  4  2  3  4  5  6  7  8  9 10
TYPE ASSIGNMENTS      5  6  7  8  9 10
EXPONENTS  0.1533000D+05 0.2299000D+04 0.5224000D+03 0.1473000D+03 0.4755000D+02
EXPONENTS  0.1676000D+02 0.6207000D+01 0.5224000D+03 0.1473000D+03 0.4755000D+02
EXPONENTS  0.1676000D+02 0.6207000D+01 0.6882000D+00 0.1752000D+01 0.2384000D+00
EXPONENTS  0.7376000D-01 0.3446000D+02 0.7749000D+01 0.2280000D+01 0.3446000D+02
EXPONENTS  0.7749000D+01 0.2280000D+01 0.3446000D+02 0.7749000D+01 0.2280000D+01
EXPONENTS  0.7156000D+00 0.7156000D+00 0.7156000D+00 0.2140000D+00 0.2140000D+00
EXPONENTS  0.2140000D+00 0.5974000D-01 0.5974000D-01 0.5974000D-01 0.2314000D+01
EXPONENTS  0.2314000D+01 0.2314000D+01 0.2314000D+01 0.2314000D+01 0.2314000D+01
EXPONENTS  0.6450000D+00 0.6450000D+00 0.6450000D+00 0.6450000D+00 0.6450000D+00
EXPONENTS  0.6450000D+00 0.2140000D+00 0.2140000D+00 0.2140000D+00 0.2140000D+00
EXPONENTS  0.2140000D+00 0.2140000D+00 0.1428000D+01 0.1428000D+01 0.1428000D+01
EXPONENTS  0.1428000D+01 0.1428000D+01 0.1428000D+01 0.1428000D+01 0.1428000D+01
EXPONENTS  0.1428000D+01 0.1428000D+01 0.5000000D+00 0.5000000D+00 0.5000000D+00
EXPONENTS  0.5000000D+00 0.5000000D+00 0.5000000D+00 0.5000000D+00 0.5000000D+00
EXPONENTS  0.5000000D+00 0.5000000D+00 0.3387000D+02 0.5095000D+01 0.1159000D+01
EXPONENTS  0.3258000D+00 0.1027000D+00 0.2526000D-01 0.1407000D+01 0.1407000D+01
EXPONENTS  0.1407000D+01 0.3880000D+00 0.3880000D+00 0.3880000D+00 0.1020000D+00
EXPONENTS  0.1020000D+00 0.1020000D+00 0.1057000D+01 0.1057000D+01 0.1057000D+01
EXPONENTS  0.1057000D+01 0.1057000D+01 0.1057000D+01 0.2470000D+00 0.2470000D+00
EXPONENTS  0.2470000D+00 0.2470000D+00 0.2470000D+00 0.2470000D+00 0.3387000D+02
EXPONENTS  0.5095000D+01 0.1159000D+01 0.3258000D+00 0.1027000D+00 0.2526000D-01
EXPONENTS  0.1407000D+01 0.1407000D+01 0.1407000D+01 0.3880000D+00 0.3880000D+00
EXPONENTS  0.3880000D+00 0.1020000D+00 0.1020000D+00 0.1020000D+00 0.1057000D+01
EXPONENTS  0.1057000D+01 0.1057000D+01 0.1057000D+01 0.1057000D+01 0.1057000D+01
EXPONENTS  0.2470000D+00 0.2470000D+00 0.2470000D+00 0.2470000D+00 0.2470000D+00
EXPONENTS  0.2470000D+00
MO    1     MO 0.0        OCC NO =    2.0000000  ORB. ENERGY =    0.000000
 -0.10454594D+00 -0.19485644D+00 -0.33040648D+00 -0.50003508D+00 -0.62375435D+00
 -0.53527403D+00 -0.20498152D+00  0.10515389D-03  0.11282322D-02  0.41588765D-02
  0.12160311D-01  0.14653766D-01 -0.17652014D-01 -0.23112876D-01  0.45531212D-01
  0.83957735D-02  0.39812062D-01  0.38604308D-01  0.26042238D-01  0.11264226D+00
  0.10922510D+00  0.73682609D-01  0.15291163D+01  0.14827284D+01  0.10002398D+01
  0.82390707D-02  0.21486598D-01  0.33144234D+00  0.61823857D-03  0.11926197D-02
  0.39625145D-01 -0.14644046D-05  0.16475400D-04  0.80284352D-03  0.44227061D-01
 -0.48426050D-02 -0.39384456D-01 -0.37826535D-02 -0.65229518D-02 -0.10857067D-01
  0.56902170D-02  0.59842532D-02 -0.11674470D-01 -0.28482668D-05 -0.12379066D-02
 -0.53371524D-03 -0.89880697D-03  0.15210207D-02 -0.62221376D-03  0.17888744D-03
  0.57309477D-04  0.32311884D-03 -0.65622030D-03  0.56477433D-03  0.72069395D-03
  0.40857343D-03 -0.65988597D-03 -0.18419486D-01  0.15600875D-02 -0.10344370D-02
  0.16257404D-01  0.23612574D-02  0.99017411D-05  0.48076164D-04  0.68976598D-03
 -0.10172276D-03  0.80883506D-04  0.37325921D-04  0.72017540D-04 -0.22511200D-03
 -0.21066239D-02 -0.16737122D-03 -0.31728404D-01 -0.57223484D-01 -0.84375993D-01
 -0.61786097D-01 -0.85653902D-02 -0.90477423D-04 -0.16771515D-02 -0.31842771D-01
 -0.24513771D-02 -0.68386732D-03 -0.13156425D-01  0.59028451D-03  0.10058619D-04
 -0.74183948D-04  0.11675444D-02  0.43772086D-02 -0.83522579D-02  0.39750492D-02
 -0.15059890D-02 -0.50404865D-03 -0.87398728D-02  0.20784481D-04 -0.17611455D-03
  0.15533007D-03 -0.51682101D-05  0.23091805D-04  0.77106053D-03 -0.27060011D-01
 -0.48803844D-01 -0.71961240D-01 -0.52191615D-01 -0.81049426D-02 -0.10996907D-03
  0.45266287D-03  0.26518412D-01 -0.16256193D-03  0.20066114D-03  0.11897638D-01
  0.83931892D-03  0.18853547D-04  0.22844028D-03  0.10916606D-02  0.33158966D-02
 -0.69199681D-02  0.36040715D-02 -0.19058076D-03  0.81821575D-04  0.64645005D-02
  0.12652150D-03 -0.27136775D-03  0.14484625D-03 -0.27533052D-04 -0.31413711D-04
 -0.53171761D-03
MO    2     MO 0.0        OCC NO =    2.0000000  ORB. ENERGY =    0.000000
  0.46853538D+00  0.87327291D+00  0.14807569D+01  0.22409682D+01  0.27954312D+01
  0.23988958D+01  0.91864966D+00  0.33867500D-03  0.36337605D-02  0.13394726D-01
  0.39165392D-01  0.47196202D-01 -0.56852826D-01  0.20027219D-01 -0.33763034D-02
  0.77756667D-03  0.16231626D+00  0.15739217D+00  0.10617583D+00  0.50065369D+00
  0.48546567D+00  0.32749227D+00  0.22589047D+00  0.21903777D+00  0.14776158D+00
  0.36148849D-01  0.10088478D+00  0.49282513D-01  0.54713215D-02  0.82417389D-02
  0.46264810D-02  0.16456429D-03  0.62099131D-04  0.91350438D-04  0.80258241D-02
 -0.32821682D-02 -0.47436559D-02 -0.31510451D-02 -0.83038110D-02 -0.45900312D-01
  0.16179110D-02  0.97689823D-04 -0.17156008D-02 -0.32891059D-03 -0.18565059D-02
 -0.47063363D-02 -0.18723132D-03  0.28638526D-03 -0.99153937D-04  0.67430585D-04
 -0.58222978D-04  0.65075462D-03 -0.10599471D-02  0.23421318D-02  0.41741580D-03
  0.23584223D-02 -0.41445322D-02 -0.21848300D-02  0.82141903D-03 -0.28818631D-02
  0.93258260D-03  0.32431321D-03 -0.37580937D-04  0.65024556D-04  0.42408786D-04
  0.50291241D-04 -0.19220103D-03 -0.19649286D-03  0.62451571D-04 -0.28726354D-05
  0.69266499D-04  0.48414824D-05 -0.21405244D-01 -0.38605239D-01 -0.56923402D-01
 -0.38382966D-01 -0.40920002D-02  0.26034920D-04  0.74264113D-03 -0.18640023D-01
 -0.13883423D-01  0.64668138D-03 -0.65117436D-02 -0.49015097D-02  0.16989093D-03
  0.54857101D-04  0.67495728D-04  0.50370417D-02 -0.47789910D-02 -0.25805067D-03
 -0.28170668D-03 -0.25789386D-03 -0.13962480D-01 -0.63298440D-05  0.43951614D-04
 -0.37621770D-04  0.11028033D-03  0.59865951D-04 -0.51188841D-04  0.50022335D-02
  0.90217340D-02  0.13302542D-01  0.12060122D-01  0.19044211D-02 -0.35524289D-04
  0.21626903D-02  0.69936148D-03  0.60132347D-02  0.11488733D-02 -0.94621917D-04
  0.29579926D-02  0.16882134D-03  0.40844871D-04  0.21589755D-03 -0.61139933D-03
 -0.75293661D-03  0.13643359D-02 -0.10428520D-02  0.78366904D-03 -0.24165975D-02
 -0.11401440D-05 -0.57884794D-04  0.59024938D-04 -0.11525221D-03  0.57173939D-04
 -0.28465807D-03
MO    3     MO 0.0        OCC NO =    2.0000000  ORB. ENERGY =    0.000000
 -0.16053250D+00 -0.29920618D+00 -0.50734613D+00 -0.76781442D+00 -0.95778797D+00
 -0.82192457D+00 -0.31475344D+00 -0.43705489D-03 -0.46893121D-02 -0.17285687D-01
 -0.50542336D-01 -0.60905972D-01  0.73367698D-01  0.25696634D-01  0.19584452D-01
  0.95048267D-03 -0.14419041D+00 -0.13981619D+00 -0.94319179D-01  0.13604326D+01
  0.13191620D+01  0.88989890D+00 -0.98415632D-01 -0.95430058D-01 -0.64376553D-01
 -0.33586852D-01  0.27846001D+00 -0.23529604D-01 -0.61303085D-02  0.24481037D-01
 -0.21316059D-02 -0.21230155D-03  0.22144679D-03 -0.32326229D-04 -0.63658097D-02
  0.15655888D-02  0.48002209D-02 -0.46468916D-02  0.43756413D-02 -0.12589856D+00
 -0.19021965D-02  0.91551803D-03  0.98667845D-03 -0.46314498D-03  0.16664197D-02
 -0.15095138D-01 -0.58485631D-04  0.39540900D-04  0.18944731D-04  0.60227646D-04
  0.17646654D-03  0.13768452D-02  0.76826167D-03  0.66511837D-02  0.58017678D-03
 -0.10395183D-02 -0.13461519D-01  0.22567488D-02 -0.12652667D-02 -0.64920326D-02
 -0.39972791D-02  0.21017274D-03  0.18866929D-04  0.11754352D-03 -0.12471424D-04
  0.99305414D-05 -0.64503227D-03  0.23403791D-03 -0.66531330D-04  0.29240172D-03
 -0.19662364D-03  0.96777965D-04 -0.29160512D-01 -0.52592184D-01 -0.77547144D-01
 -0.60479061D-01 -0.79102150D-02  0.80071868D-04 -0.43091435D-02 -0.15918145D-01
 -0.22528579D-01 -0.21588791D-02 -0.68127604D-02 -0.95236729D-02 -0.23117467D-03
  0.16855688D-03 -0.21005527D-03  0.58031137D-02 -0.35282326D-02 -0.22748811D-02
 -0.28305868D-02 -0.22896438D-02 -0.17627830D-01 -0.34979713D-04  0.17504505D-03
 -0.14006533D-03 -0.15526800D-03 -0.11296404D-03 -0.42814138D-03  0.41426525D-01
  0.74714444D-01  0.11016640D+00  0.71746429D-01  0.76752626D-02 -0.11510198D-03
 -0.21540148D-02 -0.26986067D-01  0.30216136D-01 -0.12022841D-02 -0.86538307D-02
  0.11205345D-01 -0.20272183D-03  0.25057510D-03  0.14236688D-03 -0.78604638D-02
  0.47392669D-02  0.31211969D-02  0.10982714D-02 -0.76752240D-03 -0.23289007D-01
 -0.24788564D-04 -0.14737577D-03  0.17216433D-03  0.10361947D-03 -0.85804802D-04
 -0.53834079D-03
MO    4     MO 0.0        OCC NO =    2.0000000  ORB. ENERGY =    0.000000
 -0.16183734D-01 -0.30163820D-01 -0.51146996D-01 -0.77405539D-01 -0.96557309D-01
 -0.82860536D-01 -0.31731183D-01 -0.15047274D-02 -0.16144738D-01 -0.59512544D-01
 -0.17401119D+00 -0.20969194D+00  0.25259616D+00  0.15344164D+00  0.85682201D-01
  0.71480908D-02  0.79135759D+00  0.76735066D+00  0.51765023D+00 -0.20069481D+00
 -0.19460645D+00 -0.13128036D+00  0.39457283D+00  0.38260292D+00  0.25810167D+00
  0.17851998D+00 -0.40603982D-01  0.82881030D-01  0.29297163D-01 -0.35931656D-02
  0.14104231D-01  0.92492528D-03 -0.50092952D-04  0.26030902D-03 -0.99268188D-02
  0.21107240D-01 -0.11180421D-01  0.10423096D-02 -0.31777492D-01  0.17156471D-01
 -0.34718148D-02  0.58872742D-02 -0.24154594D-02  0.61228605D-03 -0.79347031D-02
  0.11255407D-02 -0.17546128D-03  0.28262903D-03 -0.10716774D-03  0.53821503D-04
 -0.51417890D-03 -0.25245735D-03 -0.45900596D-02 -0.13451590D-02  0.20810863D-02
  0.96913355D-02  0.26937667D-02  0.10999907D-02  0.40788432D-02  0.13417102D-02
 -0.73432498D-02 -0.74239431D-03 -0.12842622D-03 -0.68655895D-05 -0.19330010D-03
  0.18325185D-03  0.41180245D-05 -0.13278329D-04  0.20202679D-03  0.16478744D-04
  0.59317863D-03 -0.13370618D-03  0.15314453D-01  0.27620246D-01  0.40726037D-01
  0.64370186D-02 -0.41968823D-02 -0.12263081D-03  0.12922726D-01  0.14914028D-01
  0.19167040D-01  0.64144986D-02 -0.14778402D-02  0.39871476D-02  0.94684057D-03
 -0.51449386D-03  0.24778381D-03 -0.15998165D-02 -0.29630506D-03  0.18961216D-02
  0.63050125D-02  0.46009490D-02  0.76907142D-02  0.17676676D-03 -0.25789532D-03
  0.81128563D-04  0.60093724D-03  0.36367843D-03  0.27606224D-05  0.49272297D-02
  0.88864616D-02  0.13103082D-01 -0.11914015D-01 -0.63769565D-02 -0.99725101D-04
  0.11041935D-01 -0.79711016D-02  0.11378563D-01  0.60550748D-02  0.34732214D-02
  0.96519552D-03  0.93398761D-03  0.43749172D-03  0.16494386D-03  0.13951618D-03
 -0.15243919D-02  0.13848757D-02 -0.55181461D-02  0.40523169D-02 -0.13090823D-02
  0.13477641D-03 -0.18922769D-03  0.54451281D-04 -0.58696487D-03  0.35248602D-03
  0.11344088D-03
MO    5     MO 0.0        OCC NO =    2.0000000  ORB. ENERGY =    0.000000
 -0.52583336D-01 -0.98006693D-01 -0.16618412D+00 -0.25150199D+00 -0.31372891D+00
 -0.26922608D+00 -0.10309929D+00  0.65811910D-03  0.70611861D-02  0.26028861D-01
  0.76106864D-01  0.91712472D-01 -0.11047739D+00 -0.74180572D-01 -0.38396295D-01
 -0.32792579D-02  0.15891527D+01  0.15409435D+01  0.10395114D+01  0.14818356D+00
  0.14368820D+00  0.96931214D-01 -0.28210922D+00 -0.27355105D+00 -0.18453592D+00
  0.35868578D+00  0.28755645D-01 -0.60943535D-01  0.58488517D-01  0.14049800D-02
 -0.10037461D-01  0.18602276D-02 -0.35294157D-04 -0.22757131D-03  0.48800084D-03
 -0.98036331D-02  0.93156322D-02 -0.52236565D-02 -0.65758182D-01 -0.16393481D-01
  0.52653971D-03 -0.26535681D-02  0.21270284D-02 -0.43407068D-03 -0.16402773D-01
 -0.12098374D-02  0.21145513D-04 -0.13008356D-03  0.10893805D-03  0.71215692D-04
 -0.10291204D-02  0.27815205D-03 -0.95737346D-02  0.34426373D-03 -0.14047212D-02
  0.21260381D-01  0.46976488D-03  0.20031713D-02  0.74608223D-02 -0.15025561D-02
  0.22109921D-02 -0.24372609D-03 -0.25638965D-03 -0.14069741D-05  0.77742369D-04
  0.30711629D-03 -0.17960771D-04  0.13053740D-03  0.46205267D-03  0.22181693D-04
 -0.36376451D-03 -0.39159037D-03 -0.97210953D-02 -0.17532396D-01 -0.25851507D-01
 -0.82148481D-02  0.13026417D-02  0.65248208D-04  0.22777966D-01 -0.92334100D-02
 -0.12201038D-01  0.12698547D-01 -0.34135319D-03 -0.33561085D-02  0.19457469D-02
  0.18218746D-03 -0.23717864D-03  0.20935255D-02 -0.54578308D-03 -0.15477425D-02
  0.11566761D-01  0.77040986D-02 -0.58343917D-02  0.78258870D-05  0.84365874D-04
 -0.92191761D-04  0.12890064D-02  0.74773951D-03 -0.13563750D-03  0.14549182D-02
  0.26240049D-02  0.38690936D-02  0.12125828D-01  0.36869079D-02  0.36128500D-04
  0.21944452D-01  0.27412532D-03 -0.37883098D-02  0.11948966D-01 -0.29771403D-02
 -0.72413137D-04  0.18483910D-02 -0.26292132D-03 -0.16455693D-03 -0.87930036D-03
  0.16919249D-02 -0.81262459D-03 -0.10824456D-01  0.81085707D-02 -0.14803189D-02
 -0.75348286D-04  0.12460441D-03 -0.49256121D-04 -0.11550807D-02  0.72767965D-03
 -0.70935235D-04
END DATA
 TOTAL ENERGY =    -76.465312553001 THE VIRIAL(-V/T)=   2.00526889
