 53
GAUSSIAN              5 MOL ORBITALS    126 PRIMITIVES        3 NUCLEI   B3LYP   B3LYP   B3LYP
  O    1    (CENTRE  1)   0.00000000  0.00000000  0.00815606  CHARGE =  8.0
  H    2    (CENTRE  2)   0.09448631 -1.44255835 -1.19178791  CHARGE =  1.0
  H    3    (CENTRE  3)   0.00000000  1.44255835 -1.09730160  CHARGE =  1.0
CENTRE ASSIGNMENTS    1  1  1  1  1  1  1  1  1  1  1  1  1  1  1  1  1  1  1  1
CENTRE ASSIGNMENTS    1  1  1  1  1  1  1  1  1  1  1  1  1  1  1  1  1  1  1  1
CENTRE ASSIGNMENTS    1  1  1  1  1  1  1  1  1  1  1  1  1  1  1  1  1  1  1  1
CENTRE ASSIGNMENTS    1  1  1  1  1  1  1  1  1  1  1  1  2  2  2  2  2  2  2  2
CENTRE ASSIGNMENTS    2  2  2  2  2  2  2  2  2  2  2  2  2  2  2  2  2  2  2  3
CENTRE ASSIGNMENTS    3  3  3  3  3  3  3  3  3  3  3  3  3  3  3  3  3  3  3  3
CENTRE ASSIGNMENTS    3  3  3  3  3  3
TYPE ASSIGNMENTS      1  1  1  1  1  1  1  1  1  1  1  1  1  1  1  1  2  2  2  3
TYPE ASSIGNMENTS      3  3  4  4  4  2  3  4  2  3  4  2  3  4  5  6  7  8  9 10
TYPE ASSIGNMENTS      5  6  7  8  9 10  5  6  7  8  9 10 11 12 13 17 14 15 18 19
TYPE ASSIGNMENTS     16 20 11 12 13 17 14 15 18 19 16 20  1  1  1  1  1  1  2  3
TYPE ASSIGNMENTS      4  2  3  4  2  3  4  5  6  7  8  9 10  5  6  7  8  9 10  1
TYPE ASSIGNMENTS      1  1  1  1  1  2  3  4  2  3  4  2  3  4  5  6  7  8  9 10
TYPE ASSIGNMENTS      5  6  7  8  9 10
EXPONENTS  0.1533000D+05 0.2299000D+04 0.5224000D+03 0.1473000D+03 0.4755000D+02
EXPONENTS  0.1676000D+02 0.6207000D+01 0.5224000D+03 0.1473000D+03 0.4755000D+02
EXPONENTS  0.1676000D+02 0.6207000D+01 0.6882000D+00 0.1752000D+01 0.2384000D+00
EXPONENTS  0.7376000D-01 0.3446000D+02 0.7749000D+01 0.2280000D+01 0.3446000D+02
EXPONENTS  0.7749000D+01 0.2280000D+01 0.3446000D+02 0.7749000D+01 0.2280000D+01
EXPONENTS  0.7156000D+00 0.7156000D+00 0.7156000D+00 0.2140000D+00 0.2140000D+00
EXPONENTS  0.2140000D+00 0.5974000D-01 0.5974000D-01 0.5974000D-01 0.2314000D+01
EXPONENTS  0.2314000D+01 0.2314000D+01 0.2314000D+01 0.2314000D+01 0.2314000D+01
EXPONENTS  0.6450000D+00 0.6450000D+00 0.6450000D+00 0.6450000D+00 0.6450000D+00
EXPONENTS  0.6450000D+00 0.2140000D+00 0.2140000D+00 0.2140000D+00 0.2140000D+00
EXPONENTS  0.2140000D+00 0.2140000D+00 0.1428000D+01 0.1428000D+01 0.1428000D+01
EXPONENTS  0.1428000D+01 0.1428000D+01 0.1428000D+01 0.1428000D+01 0.1428000D+01
EXPONENTS  0.1428000D+01 0.1428000D+01 0.5000000D+00 0.5000000D+00 0.5000000D+00
EXPONENTS  0.5000000D+00 0.5000000D+00 0.5000000D+00 0.5000000D+00 0.5000000D+00
EXPONENTS  0.5000000D+00 0.5000000D+00 0.3387000D+02 0.5095000D+01 0.1159000D+01
EXPONENTS  0.3258000D+00 0.1027000D+00 0.2526000D-01 0.1407000D+01 0.1407000D+01
EXPONENTS  0.1407000D+01 0.3880000D+00 0.3880000D+00 0.3880000D+00 0.1020000D+00
EXPONENTS  0.1020000D+00 0.1020000D+00 0.1057000D+01 0.1057000D+01 0.1057000D+01
EXPONENTS  0.1057000D+01 0.1057000D+01 0.1057000D+01 0.2470000D+00 0.2470000D+00
EXPONENTS  0.2470000D+00 0.2470000D+00 0.2470000D+00 0.2470000D+00 0.3387000D+02
EXPONENTS  0.5095000D+01 0.1159000D+01 0.3258000D+00 0.1027000D+00 0.2526000D-01
EXPONENTS  0.1407000D+01 0.1407000D+01 0.1407000D+01 0.3880000D+00 0.3880000D+00
EXPONENTS  0.3880000D+00 0.1020000D+00 0.1020000D+00 0.1020000D+00 0.1057000D+01
EXPONENTS  0.1057000D+01 0.1057000D+01 0.1057000D+01 0.1057000D+01 0.1057000D+01
EXPONENTS  0.2470000D+00 0.2470000D+00 0.2470000D+00 0.2470000D+00 0.2470000D+00
EXPONENTS  0.2470000D+00
MO    1     MO 0.0        OCC NO =    2.0000000  ORB. ENERGY =    0.000000
  0.73105838D-02  0.13625726D-01  0.23104333D-01  0.34965952D-01  0.43617269D-01
  0.37430106D-01  0.14333742D-01 -0.98504486D-05 -0.10568885D-03 -0.38958900D-03
 -0.11391354D-02 -0.13727135D-02  0.16535789D-02  0.26913138D-02  0.51684631D-01
  0.92701228D-02 -0.94849913D-01 -0.91972510D-01 -0.62044112D-01 -0.22460914D-01
 -0.21779531D-01 -0.14692343D-01  0.15691745D+01  0.15215714D+01  0.10264431D+01
 -0.20952632D-01 -0.27508708D-02  0.34114835D+00 -0.28825256D-02  0.57206231D-03
  0.41399436D-01 -0.69901867D-04  0.15097342D-05  0.78338326D-03  0.43384594D-01
 -0.75472313D-03 -0.42629871D-01  0.25929002D-02  0.82393905D-02  0.29721109D-02
  0.61370289D-02  0.63495457D-02 -0.12486575D-01  0.42369241D-05  0.18807755D-02
 -0.47773533D-03 -0.71391528D-03  0.13388073D-02 -0.62489204D-03 -0.11595609D-03
  0.24888466D-04 -0.28444088D-03  0.97587835D-03 -0.64048630D-04  0.18857377D-02
 -0.93319911D-03 -0.21216105D-03 -0.18949605D-01 -0.19944359D-02  0.40430694D-03
  0.13292392D-01 -0.20941459D-02  0.29380662D-04 -0.43209232D-04  0.70183501D-03
  0.52775599D-04 -0.12842436D-03 -0.41613970D-03 -0.14091759D-03  0.25805206D-03
 -0.16893653D-02  0.40119645D-04 -0.29673114D-01 -0.53516684D-01 -0.78910319D-01
 -0.57996622D-01 -0.10014867D-01 -0.12316106D-03  0.49190638D-03 -0.25618513D-01
 -0.22090023D-02  0.22009916D-03 -0.12819041D-01 -0.91518304D-03 -0.59462254D-04
 -0.38839280D-03  0.90713749D-03  0.39576844D-02 -0.67021030D-02  0.27444186D-02
  0.83392668D-03  0.21988283D-03 -0.88239176D-02  0.23681262D-03 -0.32552216D-03
  0.88709538D-04  0.11345866D-04 -0.39195237D-05  0.98027053D-04 -0.29538682D-01
 -0.53274230D-01 -0.78552821D-01 -0.59038928D-01 -0.93988838D-02 -0.11858853D-03
 -0.12653390D-02  0.28302541D-01 -0.14236566D-02 -0.65131595D-03  0.13313325D-01
 -0.79380132D-04 -0.86297020D-04  0.27322307D-03  0.10068010D-02  0.43184138D-02
 -0.77291791D-02  0.34107653D-02  0.60019295D-03 -0.37210887D-03  0.91233187D-02
  0.12370265D-03 -0.26712032D-03  0.14341767D-03  0.64096924D-04 -0.25251461D-05
 -0.41272987D-03
MO    2     MO 0.0        OCC NO =    2.0000000  ORB. ENERGY =    0.000000
 -0.33900066D+00 -0.63184149D+00 -0.10713760D+01 -0.16214137D+01 -0.20225858D+01
 -0.17356795D+01 -0.66467304D+00 -0.15252426D-02 -0.16364852D-01 -0.60323926D-01
 -0.17638362D+00 -0.21255084D+00  0.25604001D+00  0.11726698D+00  0.81473658D-01
  0.61674707D-02  0.75623542D-01  0.73329397D-01  0.49467578D-01 -0.18214600D+00
 -0.17662035D+00 -0.11914705D+00  0.26004993D+00  0.25216095D+00  0.17010629D+00
  0.17319925D-01 -0.39345413D-01  0.51560196D-01  0.27491224D-02 -0.44293510D-02
  0.97938415D-02  0.91440474D-04 -0.49763799D-04  0.18216061D-03 -0.99770816D-02
  0.15627140D-01 -0.56500582D-02 -0.21326175D-02 -0.41653264D-02  0.17126827D-01
 -0.42806345D-02  0.53700033D-02 -0.10893688D-02 -0.74862048D-03 -0.12470646D-02
  0.36939556D-02 -0.19824007D-03  0.25616194D-03 -0.57921878D-04 -0.34859141D-04
 -0.73971132D-04  0.63011584D-04 -0.61468479D-03 -0.63432775D-03  0.19341894D-02
  0.14694674D-02  0.22166236D-02  0.15099402D-02  0.37458693D-03 -0.31364038D-03
 -0.73125085D-02  0.77295153D-03 -0.42997359D-04  0.58117851D-05 -0.19265994D-04
  0.58465334D-04  0.22016868D-03  0.36025717D-03  0.70526742D-04 -0.23760403D-03
 -0.30245919D-03  0.10027023D-03  0.15590859D-01  0.28118756D-01  0.41461090D-01
  0.92882592D-02 -0.33156554D-02 -0.11935099D-03 -0.93579278D-04  0.13582182D-01
  0.17246825D-01  0.43242023D-03 -0.40265105D-03  0.35982520D-02  0.98069741D-04
 -0.45082153D-03  0.12623689D-03 -0.22201997D-02  0.16524036D-03  0.20549593D-02
  0.56910517D-04 -0.17632149D-03  0.74289581D-02  0.60113893D-04 -0.15657493D-03
  0.96461035D-04  0.62615360D-04  0.28534373D-04  0.68252810D-04  0.74549236D-02
  0.13445262D-01  0.19825031D-01 -0.61613229D-02 -0.51870767D-02 -0.81068662D-04
  0.99531942D-03 -0.11252762D-01  0.11695646D-01  0.50981263D-03  0.14769647D-02
  0.13007303D-02  0.79095767D-04  0.31536700D-03  0.11891608D-03 -0.10715935D-02
  0.19176678D-03  0.87982673D-03 -0.46476876D-03  0.38693631D-03 -0.42669050D-02
  0.90277192D-04 -0.10203189D-03  0.11754702D-04 -0.49665519D-04  0.39584595D-04
  0.90984463D-04
MO    3     MO 0.0        OCC NO =    2.0000000  ORB. ENERGY =    0.000000
 -0.71258448D-01 -0.13281403D+00 -0.22520485D+00 -0.34082360D+00 -0.42515057D+00
 -0.36484244D+00 -0.13971527D+00 -0.11059654D-03 -0.11866283D-02 -0.43741352D-02
 -0.12789715D-01 -0.15412228D-01  0.18565662D-01  0.36273903D-02  0.18976978D-02
  0.98940759D-04  0.10158760D+00  0.98505799D-01  0.66451430D-01  0.14514638D+01
  0.14074316D+01  0.94944505D+00  0.30115928D-01  0.29202320D-01  0.19699712D-01
  0.23640223D-01  0.30406160D+00  0.81180456D-02  0.44925849D-02  0.30712204D-01
  0.22088483D-02  0.16719454D-03  0.33726883D-03  0.37748142D-04 -0.16364795D-02
  0.51015242D-02 -0.34650447D-02  0.54896115D-02 -0.15863444D-02 -0.13591208D+00
  0.80278586D-04  0.38382189D-03 -0.46410048D-03  0.80728139D-03 -0.93466066D-03
 -0.19660062D-01  0.14397230D-03 -0.11584716D-03 -0.28125137D-04 -0.11295167D-04
 -0.11328249D-03  0.50649163D-03 -0.36567678D-03  0.64572659D-02 -0.92856065D-04
  0.14629628D-03 -0.15709756D-01 -0.63639003D-03  0.95073406D-03 -0.36620421D-02
  0.91495822D-03 -0.10814663D-02 -0.63823699D-06  0.99501500D-04 -0.52379447D-04
 -0.26594375D-04 -0.10297467D-02 -0.14036789D-03  0.28509086D-04  0.73124221D-03
  0.29750623D-03 -0.13466270D-03 -0.35134904D-01 -0.63367246D-01 -0.93434968D-01
 -0.64543999D-01 -0.85753014D-02  0.12553020D-03  0.33982808D-02 -0.15523806D-01
 -0.24276996D-01  0.16569585D-02 -0.60899485D-02 -0.10275783D-01  0.16327564D-03
  0.27128565D-03 -0.18766850D-03  0.59795736D-02 -0.19458811D-02 -0.40336925D-02
  0.21746455D-02  0.21374783D-02 -0.17813329D-01  0.15193166D-03  0.10017175D-03
 -0.25210342D-03  0.12976092D-03  0.11897443D-03 -0.75584490D-03  0.38206787D-01
  0.68907515D-01  0.10160409D+00  0.69196832D-01  0.79227715D-02 -0.13248795D-03
  0.15458140D-02 -0.21186838D-01  0.28919013D-01  0.88843472D-03 -0.72943811D-02
  0.11301239D-01  0.15280242D-03  0.40048146D-03  0.18447707D-03 -0.71879911D-02
  0.33694478D-02  0.38185434D-02 -0.81610539D-03  0.53166401D-03 -0.21449812D-01
 -0.58497545D-04 -0.18360875D-03  0.24210629D-03 -0.77065565D-04  0.58510858D-04
 -0.53514366D-03
MO    4     MO 0.0        OCC NO =    2.0000000  ORB. ENERGY =    0.000000
  0.34020478D+00  0.63408577D+00  0.10751815D+01  0.16271729D+01  0.20297700D+01
  0.17418446D+01  0.66703394D+00 -0.71380566D-03 -0.76586663D-02 -0.28231286D-01
 -0.82546625D-01 -0.99472697D-01  0.11982540D+00  0.11399800D+00  0.40739508D-01
  0.30856928D-02  0.81739800D+00  0.79260110D+00  0.53468402D+00  0.76993897D-01
  0.74658180D-01  0.50363967D-01  0.14919383D+00  0.14466783D+00  0.97592062D-01
  0.18474002D+00  0.16633111D-01  0.31732387D-01  0.30564430D-01  0.19968334D-02
  0.60189457D-02  0.99146449D-03  0.46824330D-04  0.12333131D-03 -0.63817379D-02
  0.10376477D-01 -0.39947387D-02  0.10658831D-02 -0.33490394D-01 -0.65484542D-02
 -0.15754457D-02  0.23993077D-02 -0.82386196D-03 -0.11227724D-03 -0.89345304D-02
 -0.80025297D-03 -0.83802666D-05  0.59382214D-04 -0.51001947D-04 -0.42796169D-04
 -0.61650886D-03  0.79092479D-05 -0.49223794D-02  0.64686642D-03  0.15313493D-02
  0.99812344D-02 -0.18670549D-02  0.94446178D-03  0.47859039D-02 -0.73544375D-04
 -0.55385097D-02  0.33611283D-03 -0.20847817D-03  0.92320159D-05 -0.13309896D-03
  0.30756013D-03 -0.25110049D-04 -0.18592373D-03  0.31787438D-03 -0.25859988D-05
  0.58522062D-03  0.16184485D-03  0.43693546D-02  0.78803110D-02  0.11619514D-01
 -0.14313762D-02 -0.24476578D-02 -0.40181969D-04  0.10215221D-01  0.55208430D-02
  0.66451890D-02  0.58010566D-02 -0.75921836D-03  0.90918138D-03  0.91659492D-03
 -0.17781094D-03  0.56009863D-04 -0.17720926D-03 -0.47612567D-03  0.65333494D-03
  0.52589307D-02  0.41152227D-02  0.30223719D-03  0.15269252D-04 -0.51228216D-04
  0.35958965D-04  0.53641777D-03  0.34396638D-03 -0.25732398D-04  0.75694705D-02
  0.13651852D-01  0.20129648D-01  0.31156313D-02 -0.20847261D-02 -0.58088735D-04
  0.11350580D-01 -0.67670296D-02  0.87180078D-02  0.61593521D-02  0.90448898D-03
  0.14878418D-02  0.95085188D-03  0.29534892D-03  0.54948887D-04 -0.18981756D-03
 -0.70022830D-03  0.89004586D-03 -0.56587584D-02  0.41849079D-02 -0.13174582D-02
  0.58655409D-04 -0.10642231D-03  0.47766902D-04 -0.58598696D-03  0.36871327D-03
  0.41056137D-04
MO    5     MO 0.0        OCC NO =    2.0000000  ORB. ENERGY =    0.000000
 -0.15326890D+00 -0.28566803D+00 -0.48439029D+00 -0.73307320D+00 -0.91445104D+00
 -0.78473504D+00 -0.30051183D+00  0.45975663D-03  0.49328869D-02  0.18183550D-01
  0.53167634D-01  0.64069584D-01 -0.77178603D-01 -0.65666508D-01 -0.24535350D-01
 -0.17483899D-02  0.15870328D+01  0.15388880D+01  0.10381248D+01 -0.10354806D+00
 -0.10040679D+00 -0.67733826D-01  0.20261872D-01  0.19647200D-01  0.13253885D-01
  0.35835990D+00 -0.20810225D-01  0.55825574D-02  0.59271103D-01 -0.12958056D-02
  0.82283840D-04  0.19123776D-02  0.23756487D-04  0.38852645D-04  0.80530044D-02
 -0.65463615D-02 -0.15066429D-02  0.39376410D-02 -0.63892184D-01  0.12950777D-01
  0.20353345D-02 -0.14245986D-02 -0.61073588D-03  0.36203965D-03 -0.16897195D-01
  0.13882589D-02  0.51911243D-04 -0.94866508D-05 -0.42424592D-04 -0.64856153D-04
 -0.11777155D-02 -0.11324381D-03 -0.93341686D-02 -0.14971315D-03 -0.36455089D-03
  0.18866706D-01 -0.32327480D-03 -0.33312663D-02  0.91358001D-02  0.77241426D-03
  0.44249190D-02 -0.43572815D-03 -0.41294614D-03  0.10402640D-04  0.12057686D-03
  0.65076290D-03 -0.26585245D-04 -0.60142013D-04  0.58807553D-03 -0.46226741D-05
 -0.30158857D-03  0.42090962D-03 -0.36452699D-03 -0.65743944D-03 -0.96939406D-03
  0.51808805D-02  0.20485697D-02  0.12821371D-04  0.20552755D-01 -0.17960291D-02
 -0.10368165D-02  0.11082506D-01  0.11829673D-02  0.87366890D-03  0.17437085D-02
  0.15212656D-03  0.91815739D-04 -0.10996656D-02  0.69370645D-03  0.40595918D-03
  0.98903436D-02  0.78637076D-02  0.18076190D-02 -0.95772587D-04  0.59429848D-04
  0.36342740D-04  0.10027136D-02  0.64562495D-03  0.16215574D-03 -0.84850458D-02
 -0.15303130D-01 -0.22564456D-01 -0.89595146D-02  0.42430834D-03  0.44457986D-04
  0.22093562D-01  0.75289591D-02 -0.67181715D-02  0.12013277D-01  0.88091404D-03
 -0.12735903D-02  0.18477793D-02 -0.12858085D-03  0.64546465D-04  0.92873206D-03
 -0.55574034D-03 -0.37299172D-03 -0.11045184D-01  0.81369364D-02  0.28409639D-02
 -0.18592325D-04  0.26916191D-04 -0.83238660D-05 -0.11431259D-02  0.70779970D-03
 -0.15419634D-04
END DATA
 TOTAL ENERGY =    -76.465217104367 THE VIRIAL(-V/T)=   2.00665166
