 54
GAUSSIAN              5 MOL ORBITALS    126 PRIMITIVES        3 NUCLEI   B3LYP   B3LYP   B3LYP
  O    1    (CENTRE  1)   0.00000000  0.00000000  0.00815606  CHARGE =  8.0
  H    2    (CENTRE  2)   0.00000000 -1.34807204 -1.00281530  CHARGE =  1.0
  H    3    (CENTRE  3)   0.00000000  1.44255835 -1.09730160  CHARGE =  1.0
CENTRE ASSIGNMENTS    1  1  1  1  1  1  1  1  1  1  1  1  1  1  1  1  1  1  1  1
CENTRE ASSIGNMENTS    1  1  1  1  1  1  1  1  1  1  1  1  1  1  1  1  1  1  1  1
CENTRE ASSIGNMENTS    1  1  1  1  1  1  1  1  1  1  1  1  1  1  1  1  1  1  1  1
CENTRE ASSIGNMENTS    1  1  1  1  1  1  1  1  1  1  1  1  2  2  2  2  2  2  2  2
CENTRE ASSIGNMENTS    2  2  2  2  2  2  2  2  2  2  2  2  2  2  2  2  2  2  2  3
CENTRE ASSIGNMENTS    3  3  3  3  3  3  3  3  3  3  3  3  3  3  3  3  3  3  3  3
CENTRE ASSIGNMENTS    3  3  3  3  3  3
TYPE ASSIGNMENTS      1  1  1  1  1  1  1  1  1  1  1  1  1  1  1  1  2  2  2  3
TYPE ASSIGNMENTS      3  3  4  4  4  2  3  4  2  3  4  2  3  4  5  6  7  8  9 10
TYPE ASSIGNMENTS      5  6  7  8  9 10  5  6  7  8  9 10 11 12 13 17 14 15 18 19
TYPE ASSIGNMENTS     16 20 11 12 13 17 14 15 18 19 16 20  1  1  1  1  1  1  2  3
TYPE ASSIGNMENTS      4  2  3  4  2  3  4  5  6  7  8  9 10  5  6  7  8  9 10  1
TYPE ASSIGNMENTS      1  1  1  1  1  2  3  4  2  3  4  2  3  4  5  6  7  8  9 10
TYPE ASSIGNMENTS      5  6  7  8  9 10
EXPONENTS  0.1533000D+05 0.2299000D+04 0.5224000D+03 0.1473000D+03 0.4755000D+02
EXPONENTS  0.1676000D+02 0.6207000D+01 0.5224000D+03 0.1473000D+03 0.4755000D+02
EXPONENTS  0.1676000D+02 0.6207000D+01 0.6882000D+00 0.1752000D+01 0.2384000D+00
EXPONENTS  0.7376000D-01 0.3446000D+02 0.7749000D+01 0.2280000D+01 0.3446000D+02
EXPONENTS  0.7749000D+01 0.2280000D+01 0.3446000D+02 0.7749000D+01 0.2280000D+01
EXPONENTS  0.7156000D+00 0.7156000D+00 0.7156000D+00 0.2140000D+00 0.2140000D+00
EXPONENTS  0.2140000D+00 0.5974000D-01 0.5974000D-01 0.5974000D-01 0.2314000D+01
EXPONENTS  0.2314000D+01 0.2314000D+01 0.2314000D+01 0.2314000D+01 0.2314000D+01
EXPONENTS  0.6450000D+00 0.6450000D+00 0.6450000D+00 0.6450000D+00 0.6450000D+00
EXPONENTS  0.6450000D+00 0.2140000D+00 0.2140000D+00 0.2140000D+00 0.2140000D+00
EXPONENTS  0.2140000D+00 0.2140000D+00 0.1428000D+01 0.1428000D+01 0.1428000D+01
EXPONENTS  0.1428000D+01 0.1428000D+01 0.1428000D+01 0.1428000D+01 0.1428000D+01
EXPONENTS  0.1428000D+01 0.1428000D+01 0.5000000D+00 0.5000000D+00 0.5000000D+00
EXPONENTS  0.5000000D+00 0.5000000D+00 0.5000000D+00 0.5000000D+00 0.5000000D+00
EXPONENTS  0.5000000D+00 0.5000000D+00 0.3387000D+02 0.5095000D+01 0.1159000D+01
EXPONENTS  0.3258000D+00 0.1027000D+00 0.2526000D-01 0.1407000D+01 0.1407000D+01
EXPONENTS  0.1407000D+01 0.3880000D+00 0.3880000D+00 0.3880000D+00 0.1020000D+00
EXPONENTS  0.1020000D+00 0.1020000D+00 0.1057000D+01 0.1057000D+01 0.1057000D+01
EXPONENTS  0.1057000D+01 0.1057000D+01 0.1057000D+01 0.2470000D+00 0.2470000D+00
EXPONENTS  0.2470000D+00 0.2470000D+00 0.2470000D+00 0.2470000D+00 0.3387000D+02
EXPONENTS  0.5095000D+01 0.1159000D+01 0.3258000D+00 0.1027000D+00 0.2526000D-01
EXPONENTS  0.1407000D+01 0.1407000D+01 0.1407000D+01 0.3880000D+00 0.3880000D+00
EXPONENTS  0.3880000D+00 0.1020000D+00 0.1020000D+00 0.1020000D+00 0.1057000D+01
EXPONENTS  0.1057000D+01 0.1057000D+01 0.1057000D+01 0.1057000D+01 0.1057000D+01
EXPONENTS  0.2470000D+00 0.2470000D+00 0.2470000D+00 0.2470000D+00 0.2470000D+00
EXPONENTS  0.2470000D+00
MO    1     MO 0.0        OCC NO =    2.0000000  ORB. ENERGY =    0.000000
  0.37251570D+00  0.69430801D+00  0.11772968D+01  0.17817135D+01  0.22225472D+01
  0.19072761D+01  0.73038544D+00  0.10377650D-02  0.11134538D-01  0.41044002D-01
  0.12001025D+00  0.14461819D+00 -0.17420794D+00 -0.63643953D-01 -0.30350163D-01
 -0.52601342D-03  0.65368556D+00  0.63385511D+00  0.42759491D+00  0.99745306D-01
  0.96719395D-01  0.65246332D-01  0.41575655D+00  0.40314400D+00  0.27195856D+00
  0.14734523D+00  0.14695357D-01  0.89712237D-01  0.23851530D-01 -0.75091998D-03
  0.67159342D-02  0.74478399D-03 -0.29576487D-04  0.13761711D-03  0.23381112D-01
 -0.12234932D-01 -0.11146179D-01 -0.24636212D-02 -0.28135753D-01 -0.10025953D-01
  0.41368848D-02 -0.52897735D-03 -0.36079074D-02  0.27869091D-03 -0.66921536D-02
  0.23545699D-02 -0.40663646D-03  0.56436166D-03 -0.15772519D-03  0.95877509D-04
 -0.39593555D-03  0.71528575D-03 -0.39608660D-02  0.26667900D-03 -0.28642558D-03
  0.84154746D-02  0.56811375D-03 -0.72813963D-02  0.34671234D-02 -0.13681508D-02
  0.81406730D-02  0.11970821D-03 -0.68656307D-04  0.88487062D-04  0.36984061D-03
  0.47953032D-04  0.26501034D-03 -0.10167292D-04  0.15801589D-03 -0.53047153D-03
 -0.10993545D-02 -0.40198121D-03 -0.24059440D-01 -0.43392191D-01 -0.63981760D-01
 -0.33739308D-01 -0.13145673D-02  0.19579926D-04  0.10689811D-01 -0.27712974D-01
 -0.16468184D-01  0.57642200D-02 -0.63320637D-02 -0.31374772D-02  0.84366299D-03
  0.20247842D-03  0.32222035D-03  0.48952391D-02 -0.51886222D-02  0.29338306D-03
  0.52473328D-02  0.38031923D-02 -0.13691291D-01 -0.14121305D-03  0.10125484D-03
  0.39958214D-04  0.56501417D-03  0.36233727D-03  0.49256500D-03 -0.16876336D-01
 -0.30437167D-01 -0.44879585D-01 -0.18829426D-01  0.22482727D-03  0.29958282D-04
  0.90244097D-02  0.17754242D-01 -0.88681332D-02  0.48846365D-02  0.34062421D-02
 -0.11013022D-02  0.75374856D-03 -0.25813016D-03  0.34463526D-03  0.24411242D-02
 -0.28254133D-02  0.38428911D-03 -0.44461480D-02  0.32623771D-02  0.63472040D-02
 -0.41154445D-04  0.76204271D-04 -0.35049826D-04 -0.46909920D-03  0.28346435D-03
 -0.28543311D-03
MO    2     MO 0.0        OCC NO =    2.0000000  ORB. ENERGY =    0.000000
 -0.22607359D+00 -0.42136399D+00 -0.71448186D+00 -0.10812923D+01 -0.13488269D+01
 -0.11574942D+01 -0.44325878D+00 -0.23223945D-03 -0.24917769D-02 -0.91851587D-02
 -0.26856865D-01 -0.32363829D-01  0.38985661D-01 -0.25057114D-02  0.11864720D-01
  0.10120129D-02  0.15993634D+01  0.15508445D+01  0.10461905D+01 -0.48866771D-01
 -0.47384330D-01 -0.31965189D-01  0.96128894D-01  0.93212692D-01  0.62880731D-01
  0.36050754D+00 -0.87069279D-02  0.20825038D-01  0.58357207D-01 -0.42402755D-03
  0.33373695D-02  0.18222527D-02  0.43160247D-05  0.65468198D-04  0.11665339D-02
  0.16334893D-02 -0.28000232D-02 -0.60277079D-02 -0.68839358D-01  0.34184648D-02
 -0.22278406D-03  0.88582945D-03 -0.66304539D-03  0.68186918D-03 -0.16373599D-01
 -0.15794748D-03 -0.29376628D-04  0.65953623D-04 -0.36576995D-04  0.23458217D-03
 -0.96873001D-03 -0.12787155D-03 -0.96909960D-02 -0.21371026D-03  0.13929532D-04
  0.20590025D-01 -0.25091158D-04 -0.11650799D-02  0.84829628D-02  0.66622194D-03
  0.11232913D-02  0.29288842D-03 -0.16798044D-03  0.14817087D-05  0.46138489D-04
  0.11732602D-03  0.38858678D-05  0.10652021D-03  0.38661529D-03 -0.83309939D-05
 -0.24493568D-03 -0.98352186D-03  0.23898582D-02  0.43102076D-02  0.63553986D-02
  0.24618801D-02 -0.19014595D-03 -0.10319623D-04  0.26154613D-01  0.30949957D-02
  0.43950560D-02  0.14103237D-01  0.57644343D-03  0.14890353D-02  0.20641785D-02
  0.22731197D-05  0.12082378D-03 -0.11908919D-02  0.63953260D-03  0.55135931D-03
  0.12838576D-01  0.93052180D-02  0.37877595D-02  0.29854579D-05 -0.21402817D-04
  0.18417359D-04  0.13824124D-02  0.88652558D-03  0.75026939D-04 -0.51523739D-03
 -0.92925185D-03 -0.13701813D-02 -0.38019781D-02 -0.12246214D-02 -0.18532853D-04
  0.22079898D-01 -0.33521823D-03  0.12974679D-02  0.11951173D-01  0.72020847D-03
  0.13388396D-03  0.18441861D-02  0.73240363D-04  0.56806762D-04 -0.17632970D-03
 -0.10035381D-03  0.27668351D-03 -0.10878329D-01  0.79820129D-02 -0.79940336D-03
  0.22901799D-04 -0.39550676D-04  0.16648877D-04 -0.11477385D-02  0.69354829D-03
  0.79901160D-05
MO    3     MO 0.0        OCC NO =    2.0000000  ORB. ENERGY =    0.000000
 -0.15762050D+00 -0.29377870D+00 -0.49814308D+00 -0.75388657D+00 -0.94041408D+00
 -0.80701519D+00 -0.30904394D+00  0.26557337D-04  0.28494279D-03  0.10503528D-02
  0.30711699D-02  0.37009091D-02 -0.44581372D-02 -0.20929811D-01  0.37566211D-01
  0.65655188D-02 -0.36180841D+00 -0.35083245D+00 -0.23666950D+00 -0.68270676D+00
 -0.66199591D+00 -0.44657853D+00  0.12618741D+01  0.12235934D+01  0.82542887D+00
 -0.81554111D-01 -0.14058014D+00  0.27407002D+00 -0.13201583D-01 -0.13209995D-01
  0.32910536D-01 -0.41223048D-03 -0.11280850D-03  0.64611004D-03  0.36585554D-01
 -0.45251386D-03 -0.36133040D-01  0.13635897D-02  0.15572858D-01  0.59550377D-01
  0.48556143D-02  0.49012654D-02 -0.97568796D-02 -0.15425263D-03  0.37040400D-02
  0.83616198D-02 -0.67619303D-03  0.11500395D-02 -0.47384647D-03 -0.53067241D-04
  0.21914636D-03 -0.29597912D-03  0.21922997D-02 -0.34762430D-02  0.86500714D-03
 -0.46578809D-02  0.65859847D-02 -0.15944847D-01 -0.19190181D-02  0.38427442D-02
  0.13349825D-01 -0.66257295D-04  0.38000579D-04  0.10751469D-03  0.51845880D-03
 -0.26541523D-04  0.48111442D-03  0.59430842D-04 -0.87460213D-04 -0.80365848D-03
 -0.16148073D-02  0.22249258D-03 -0.59737531D-02 -0.10773910D-01 -0.15886124D-01
 -0.12240189D-01 -0.18749162D-02 -0.10427506D-03 -0.59167034D-02 -0.14185894D-01
  0.14903783D-01 -0.31904380D-02 -0.56586188D-02  0.73950883D-02 -0.46695901D-03
 -0.43276558D-04  0.11635291D-02 -0.65416450D-03 -0.45788200D-02  0.52329845D-02
 -0.29043462D-02 -0.21050289D-02  0.56665206D-02 -0.62675483D-04 -0.16096098D-03
  0.22363646D-03 -0.31272969D-03 -0.20055005D-03  0.10189212D-02 -0.41323025D-01
 -0.74527777D-01 -0.10989116D+00 -0.78415069D-01 -0.11091205D-01 -0.36000083D-04
 -0.49949204D-02  0.32486463D-01 -0.14010206D-01 -0.27035974D-02  0.13720915D-01
 -0.50122395D-02 -0.41719228D-03  0.11095585D-03  0.77189469D-03  0.64994680D-02
 -0.77535048D-02  0.12540368D-02  0.24608984D-02 -0.18056931D-02  0.15914158D-01
  0.13637114D-03 -0.12925059D-03 -0.71205545D-05  0.25964171D-03 -0.15689468D-03
 -0.86127069D-04
MO    4     MO 0.0        OCC NO =    2.0000000  ORB. ENERGY =    0.000000
 -0.13955029D+00 -0.26009879D+00 -0.44103405D+00 -0.66745813D+00 -0.83260141D+00
 -0.71449588D+00 -0.27361396D+00  0.98200911D-04  0.10536313D-02  0.38838835D-02
  0.11356247D-01  0.13684830D-01 -0.16484828D-01 -0.27658887D-01  0.20318023D-01
  0.31296030D-02 -0.20628677D+00 -0.20002878D+00 -0.13493823D+00  0.13052375D+01
  0.12656413D+01  0.85379415D+00  0.57419829D+00  0.55677919D+00  0.37559996D+00
 -0.46498461D-01  0.26057755D+00  0.11951112D+00 -0.75269446D-02  0.20326467D-01
  0.11491158D-01 -0.23503515D-03  0.15415890D-03  0.23120243D-03  0.19792261D-01
 -0.59192453D-02 -0.13873016D-01  0.77745707D-03  0.88789382D-02 -0.12489895D+00
  0.14213347D-02  0.29133343D-02 -0.43346690D-02 -0.87947861D-04  0.21118759D-02
 -0.11070180D-01 -0.69958987D-03  0.86501362D-03 -0.16542375D-03 -0.30256538D-04
  0.12494733D-03  0.20847219D-02  0.12499500D-02  0.60603176D-02  0.31335032D-03
 -0.26557128D-02 -0.11408987D-01 -0.73504954D-02 -0.10941372D-02 -0.67719659D-02
  0.64104444D-02 -0.37776909D-04  0.21666209D-04  0.17075538D-03  0.50694693D-03
 -0.15132775D-04 -0.19193837D-03  0.53898354D-03 -0.49865852D-04 -0.32032779D-03
 -0.20598243D-02  0.12685519D-03 -0.47794807D-01 -0.86199902D-01 -0.12710171D+00
 -0.91096367D-01 -0.97376890D-02  0.57651206D-04 -0.33734363D-02 -0.38419636D-01
 -0.32516617D-01 -0.18190433D-02 -0.12219281D-01 -0.10026715D-01 -0.26623888D-03
  0.36228074D-03  0.41381077D-03  0.87271056D-02 -0.71392279D-02 -0.15878777D-02
 -0.16559267D-02 -0.12001921D-02 -0.24953385D-01 -0.23054924D-03  0.27134072D-03
 -0.40791478D-04 -0.17830431D-03 -0.11434456D-03  0.52660071D-03  0.21569709D-01
  0.38901859D-01  0.57360768D-01  0.40993253D-01  0.50551139D-02 -0.11571529D-03
 -0.28478774D-02 -0.88055444D-02  0.23175420D-01 -0.15414688D-02 -0.33379476D-02
  0.10039870D-01 -0.23786414D-03  0.45177697D-04  0.65249775D-03 -0.53721203D-02
  0.12862559D-02  0.40858644D-02  0.14030928D-02 -0.10295244D-02 -0.17503239D-01
 -0.56862448D-04 -0.90235420D-04  0.14709787D-03  0.14803595D-03 -0.89454239D-04
 -0.85329670D-03
MO    5     MO 0.0        OCC NO =    2.0000000  ORB. ENERGY =    0.000000
  0.15852614D+00  0.29546665D+00  0.50100523D+00  0.75821815D+00  0.94581737D+00
  0.81165202D+00  0.31081960D+00 -0.13619558D-02 -0.14612892D-01 -0.53865871D-01
 -0.15750065D+00 -0.18979594D+00  0.22862932D+00  0.15893190D+00  0.91658293D-01
  0.85841676D-02  0.20343576D+00  0.19726426D+00  0.13307330D+00  0.17301696D+00
  0.16776825D+00  0.11317547D+00  0.73481223D+00  0.71252068D+00  0.48066224D+00
  0.45855823D-01  0.35441286D-01  0.15662931D+00  0.74229176D-02  0.28639683D-02
  0.22365815D-01  0.23178682D-03  0.16795027D-04  0.42665209D-03  0.83680515D-03
  0.19664539D-01 -0.20501344D-01 -0.76671214D-03 -0.87562258D-02 -0.15399068D-01
 -0.14643666D-02  0.64065582D-02 -0.49421915D-02  0.86732368D-04 -0.20826884D-02
 -0.26782909D-02 -0.37442863D-03  0.59053509D-03 -0.21610646D-03  0.29838374D-04
 -0.12322048D-03  0.29446113D-03 -0.12326749D-02  0.78602488D-03  0.26669882D-02
  0.26190092D-02 -0.14839885D-02 -0.32548840D-02  0.10790156D-02 -0.87408613D-03
 -0.47460805D-02  0.37254809D-04 -0.21366769D-04  0.68384187D-04 -0.11498704D-03
  0.14923630D-04 -0.22105972D-03 -0.15253247D-03  0.49176676D-04  0.15907155D-04
  0.49749359D-03 -0.12510197D-03 -0.56889511D-03 -0.10260258D-02 -0.15128744D-02
 -0.25084681D-01 -0.74897881D-02 -0.10877734D-03  0.33268134D-02  0.52847116D-03
  0.11897065D-01  0.17939030D-02 -0.66398148D-02  0.13598467D-02  0.26255930D-03
 -0.37808921D-03  0.50367920D-03  0.13189716D-02 -0.37382881D-02  0.24193165D-02
  0.16330407D-02  0.11836047D-02 -0.10104582D-02  0.85030907D-04 -0.16821517D-03
  0.83184267D-04  0.17584003D-03  0.11276424D-03  0.17355389D-03  0.66576137D-02
  0.12007281D-01  0.17704728D-01 -0.74991594D-02 -0.56943767D-02 -0.13192467D-03
  0.28085180D-02 -0.55651350D-02  0.16878154D-01  0.15201648D-02  0.44106388D-02
  0.37525268D-02  0.23457671D-03  0.49677756D-03  0.48045584D-03 -0.34579725D-03
 -0.26175908D-02  0.29633881D-02 -0.13837012D-02  0.10152958D-02 -0.35556659D-02
  0.13706549D-03 -0.25529460D-03  0.11822911D-03 -0.14599000D-03  0.88217927D-04
 -0.16408579D-03
END DATA
 TOTAL ENERGY =    -76.460710234649 THE VIRIAL(-V/T)=   2.00390059
