 54
GAUSSIAN              5 MOL ORBITALS    126 PRIMITIVES        3 NUCLEI   B3LYP   B3LYP   B3LYP
  O    1    (CENTRE  1)   0.00000000  0.00000000  0.00815606  CHARGE =  8.0
  H    2    (CENTRE  2)   0.00000000 -1.53704465 -1.00281530  CHARGE =  1.0
  H    3    (CENTRE  3)   0.00000000  1.44255835 -1.09730160  CHARGE =  1.0
CENTRE ASSIGNMENTS    1  1  1  1  1  1  1  1  1  1  1  1  1  1  1  1  1  1  1  1
CENTRE ASSIGNMENTS    1  1  1  1  1  1  1  1  1  1  1  1  1  1  1  1  1  1  1  1
CENTRE ASSIGNMENTS    1  1  1  1  1  1  1  1  1  1  1  1  1  1  1  1  1  1  1  1
CENTRE ASSIGNMENTS    1  1  1  1  1  1  1  1  1  1  1  1  2  2  2  2  2  2  2  2
CENTRE ASSIGNMENTS    2  2  2  2  2  2  2  2  2  2  2  2  2  2  2  2  2  2  2  3
CENTRE ASSIGNMENTS    3  3  3  3  3  3  3  3  3  3  3  3  3  3  3  3  3  3  3  3
CENTRE ASSIGNMENTS    3  3  3  3  3  3
TYPE ASSIGNMENTS      1  1  1  1  1  1  1  1  1  1  1  1  1  1  1  1  2  2  2  3
TYPE ASSIGNMENTS      3  3  4  4  4  2  3  4  2  3  4  2  3  4  5  6  7  8  9 10
TYPE ASSIGNMENTS      5  6  7  8  9 10  5  6  7  8  9 10 11 12 13 17 14 15 18 19
TYPE ASSIGNMENTS     16 20 11 12 13 17 14 15 18 19 16 20  1  1  1  1  1  1  2  3
TYPE ASSIGNMENTS      4  2  3  4  2  3  4  5  6  7  8  9 10  5  6  7  8  9 10  1
TYPE ASSIGNMENTS      1  1  1  1  1  2  3  4  2  3  4  2  3  4  5  6  7  8  9 10
TYPE ASSIGNMENTS      5  6  7  8  9 10
EXPONENTS  0.1533000D+05 0.2299000D+04 0.5224000D+03 0.1473000D+03 0.4755000D+02
EXPONENTS  0.1676000D+02 0.6207000D+01 0.5224000D+03 0.1473000D+03 0.4755000D+02
EXPONENTS  0.1676000D+02 0.6207000D+01 0.6882000D+00 0.1752000D+01 0.2384000D+00
EXPONENTS  0.7376000D-01 0.3446000D+02 0.7749000D+01 0.2280000D+01 0.3446000D+02
EXPONENTS  0.7749000D+01 0.2280000D+01 0.3446000D+02 0.7749000D+01 0.2280000D+01
EXPONENTS  0.7156000D+00 0.7156000D+00 0.7156000D+00 0.2140000D+00 0.2140000D+00
EXPONENTS  0.2140000D+00 0.5974000D-01 0.5974000D-01 0.5974000D-01 0.2314000D+01
EXPONENTS  0.2314000D+01 0.2314000D+01 0.2314000D+01 0.2314000D+01 0.2314000D+01
EXPONENTS  0.6450000D+00 0.6450000D+00 0.6450000D+00 0.6450000D+00 0.6450000D+00
EXPONENTS  0.6450000D+00 0.2140000D+00 0.2140000D+00 0.2140000D+00 0.2140000D+00
EXPONENTS  0.2140000D+00 0.2140000D+00 0.1428000D+01 0.1428000D+01 0.1428000D+01
EXPONENTS  0.1428000D+01 0.1428000D+01 0.1428000D+01 0.1428000D+01 0.1428000D+01
EXPONENTS  0.1428000D+01 0.1428000D+01 0.5000000D+00 0.5000000D+00 0.5000000D+00
EXPONENTS  0.5000000D+00 0.5000000D+00 0.5000000D+00 0.5000000D+00 0.5000000D+00
EXPONENTS  0.5000000D+00 0.5000000D+00 0.3387000D+02 0.5095000D+01 0.1159000D+01
EXPONENTS  0.3258000D+00 0.1027000D+00 0.2526000D-01 0.1407000D+01 0.1407000D+01
EXPONENTS  0.1407000D+01 0.3880000D+00 0.3880000D+00 0.3880000D+00 0.1020000D+00
EXPONENTS  0.1020000D+00 0.1020000D+00 0.1057000D+01 0.1057000D+01 0.1057000D+01
EXPONENTS  0.1057000D+01 0.1057000D+01 0.1057000D+01 0.2470000D+00 0.2470000D+00
EXPONENTS  0.2470000D+00 0.2470000D+00 0.2470000D+00 0.2470000D+00 0.3387000D+02
EXPONENTS  0.5095000D+01 0.1159000D+01 0.3258000D+00 0.1027000D+00 0.2526000D-01
EXPONENTS  0.1407000D+01 0.1407000D+01 0.1407000D+01 0.3880000D+00 0.3880000D+00
EXPONENTS  0.3880000D+00 0.1020000D+00 0.1020000D+00 0.1020000D+00 0.1057000D+01
EXPONENTS  0.1057000D+01 0.1057000D+01 0.1057000D+01 0.1057000D+01 0.1057000D+01
EXPONENTS  0.2470000D+00 0.2470000D+00 0.2470000D+00 0.2470000D+00 0.2470000D+00
EXPONENTS  0.2470000D+00
MO    1     MO 0.0        OCC NO =    2.0000000  ORB. ENERGY =    0.000000
 -0.99483183D-01 -0.18542030D+00 -0.31440617D+00 -0.47582030D+00 -0.59354832D+00
 -0.50935276D+00 -0.19505505D+00  0.35084146D-04  0.37642986D-03  0.13875914D-02
  0.40572357D-02  0.48891663D-02 -0.58895190D-02 -0.14914057D-01  0.47536428D-01
  0.89202092D-02 -0.16385013D+00 -0.15887951D+00 -0.10717918D+00 -0.95499863D-01
 -0.92602743D-01 -0.62469263D-01  0.15423234D+01  0.14955349D+01  0.10088790D+01
 -0.37011806D-01 -0.18460493D-01  0.33566844D+00 -0.60983495D-02 -0.96833716D-03
  0.41501665D-01 -0.19703552D-03  0.72952948D-05  0.85795033D-03  0.42619160D-01
 -0.45580752D-02 -0.38061085D-01  0.13985832D-03  0.64941871D-02  0.12326517D-01
  0.56421008D-02  0.58760864D-02 -0.11518187D-01  0.66982821D-04  0.16818181D-02
  0.21937836D-03 -0.78041269D-03  0.14284228D-02 -0.64801007D-03  0.79901019D-05
  0.11391400D-03 -0.39677884D-03  0.97425603D-03 -0.72528654D-04  0.37085701D-03
 -0.21899543D-02  0.76701039D-03 -0.18028649D-01 -0.73281382D-03 -0.54942443D-03
  0.16916078D-01  0.11907926D-03  0.35119664D-04 -0.11083150D-03  0.60391534D-03
 -0.54728259D-04  0.43338058D-04 -0.13663518D-03 -0.50630732D-04  0.28915645D-03
 -0.16751108D-02 -0.14608661D-04 -0.24036040D-01 -0.43349988D-01 -0.63919532D-01
 -0.48112455D-01 -0.84295160D-02 -0.13348522D-03 -0.22126940D-02 -0.23796593D-01
  0.39404837D-02 -0.12135606D-02 -0.11784350D-01  0.22393053D-02 -0.18974605D-03
 -0.30922431D-03  0.10839339D-02  0.27920579D-02 -0.69788948D-02  0.41868368D-02
 -0.11605998D-02 -0.74910121D-03 -0.37254839D-02  0.19185373D-03 -0.36973833D-03
  0.17788460D-03 -0.12178839D-03 -0.65535156D-04  0.50120216D-03 -0.32008837D-01
 -0.57729256D-01 -0.85121755D-01 -0.63162203D-01 -0.99238861D-02 -0.10473702D-03
 -0.22747571D-02  0.29471185D-01 -0.35367725D-02 -0.12459400D-02  0.13689605D-01
 -0.70975587D-03 -0.19324446D-03  0.29887544D-03  0.10625848D-02  0.43754357D-02
 -0.77120600D-02  0.33366243D-02  0.11303901D-02 -0.85075047D-03  0.99768936D-02
  0.15371305D-03 -0.34784769D-03  0.19413464D-03  0.12033305D-03 -0.77542361D-04
 -0.39386702D-03
MO    2     MO 0.0        OCC NO =    2.0000000  ORB. ENERGY =    0.000000
  0.43940385D+00  0.81897653D+00  0.13886898D+01  0.21016343D+01  0.26216232D+01
  0.22497427D+01  0.86153195D+00 -0.99081238D-05 -0.10630767D-03 -0.39187007D-03
 -0.11458051D-02 -0.13807509D-02  0.16632607D-02  0.53024987D-01  0.14982900D-01
  0.24022343D-02  0.69536146D+00  0.67426671D+00  0.45485634D+00 -0.14675637D+00
 -0.14230431D+00 -0.95997648D-01  0.35729924D+00  0.34646007D+00  0.23371992D+00
  0.15707393D+00 -0.29846985D-01  0.78439918D-01  0.25880708D-01 -0.25061631D-02
  0.97383171D-02  0.83619655D-03 -0.18273460D-04  0.19567160D-03  0.68783443D-02
  0.25225029D-02 -0.94008471D-02 -0.59354295D-03 -0.27560598D-01  0.13710264D-01
  0.12344620D-02  0.13940707D-02 -0.26285327D-02 -0.28426754D-03 -0.71374462D-02
  0.14672930D-02 -0.15151248D-03  0.28764104D-03 -0.13612856D-03 -0.33909091D-04
 -0.48343819D-03 -0.20028398D-03 -0.41346327D-02 -0.74409035D-03  0.63321309D-03
  0.92939190D-02  0.14216744D-02 -0.29463747D-02  0.31099792D-02  0.81059662D-03
  0.10467354D-02 -0.50535897D-03 -0.14904389D-03 -0.13487677D-04 -0.12032006D-04
  0.23226056D-03  0.80179069D-04 -0.26979535D-03  0.21487112D-03 -0.39716038D-04
  0.30589137D-03  0.61997509D-04 -0.16609183D-02 -0.29955346D-02 -0.44169140D-02
 -0.52294138D-02 -0.15336493D-02 -0.43641546D-04  0.93904237D-02 -0.31988129D-02
  0.35248663D-02  0.51502142D-02 -0.24797980D-02  0.12233486D-02  0.80526086D-03
 -0.14582542D-03  0.23499770D-03  0.84524136D-03 -0.20803863D-02  0.12351450D-02
  0.49254547D-02  0.31791011D-02 -0.10055208D-02  0.54609260D-04 -0.10891290D-03
  0.54303642D-04  0.51685620D-03  0.27812382D-03  0.13593452D-03 -0.99479279D-02
 -0.17941498D-01 -0.26454728D-01 -0.20920435D-01 -0.33916473D-02 -0.20707832D-04
  0.96538125D-02  0.85413563D-02 -0.28051755D-02  0.52876287D-02  0.44641479D-02
 -0.14407205D-02  0.82010770D-03  0.11481790D-03  0.18405150D-03  0.25413496D-02
 -0.30108607D-02  0.46951112D-03 -0.47972482D-02  0.36104891D-02  0.64662884D-02
  0.53574998D-04 -0.77386154D-04  0.23811156D-04 -0.51067988D-03  0.32908104D-03
  0.11556713D-04
MO    3     MO 0.0        OCC NO =    2.0000000  ORB. ENERGY =    0.000000
 -0.20459645D+00 -0.38133414D+00 -0.64660562D+00 -0.97856884D+00 -0.12206875D+01
 -0.10475315D+01 -0.40114891D+00 -0.35862218D-03 -0.38477807D-02 -0.14183644D-01
 -0.41472143D-01 -0.49975949D-01  0.60201327D-01  0.12889262D-01  0.19299549D-01
  0.16293291D-02  0.15693220D+01  0.15217144D+01  0.10265396D+01  0.35005885D+00
  0.33943934D+00  0.22898377D+00  0.97892279D-01  0.94922582D-01  0.64034213D-01
  0.35449128D+00  0.72390726D-01  0.20446128D-01  0.58408706D-01  0.66693591D-02
  0.36225952D-02  0.18871647D-02  0.65011514D-04  0.78347193D-04 -0.59412659D-03
  0.24760132D-02 -0.18818866D-02 -0.13395335D-02 -0.62199955D-01 -0.32104023D-01
 -0.77291410D-03  0.14181408D-02 -0.64522671D-03 -0.64154734D-03 -0.16108099D-01
 -0.43045144D-02 -0.54978212D-04  0.11131234D-03 -0.56334128D-04 -0.76527511D-04
 -0.10910443D-02  0.26484315D-03 -0.93312189D-02  0.17258887D-02  0.36530164D-03
  0.20974920D-01 -0.36395538D-02 -0.45603817D-03  0.70187363D-02 -0.15381123D-02
 -0.63986676D-03 -0.11405161D-02 -0.33636874D-03  0.27591134D-04  0.36364014D-04
  0.52417573D-03 -0.19600872D-03  0.11179724D-03  0.48493048D-03  0.11323531D-03
 -0.22088928D-03  0.13991867D-03 -0.70313426D-02 -0.12681316D-01 -0.18698593D-01
 -0.17353033D-01 -0.31840965D-02  0.53433502D-06  0.21192716D-01 -0.29039002D-02
 -0.26773822D-02  0.11623227D-01 -0.24066779D-02 -0.16932116D-02  0.18173477D-02
 -0.37572969D-04  0.34246984D-04  0.11445842D-02 -0.10932774D-02 -0.51306806D-04
  0.11115980D-01  0.71747335D-02 -0.29425991D-02  0.36139870D-04 -0.20255201D-04
 -0.15884669D-04  0.11664635D-02  0.62768192D-03 -0.13984797D-03  0.10999780D-01
  0.19838556D-01  0.29251940D-01  0.15842295D-01  0.76279601D-03 -0.53436484D-04
  0.21787144D-01 -0.76302526D-02  0.10143626D-01  0.11933350D-01 -0.14408954D-02
  0.33617663D-02  0.18508547D-02  0.15994723D-03  0.11704499D-03 -0.22831805D-02
  0.10340219D-02  0.12491586D-02 -0.10826638D-01  0.81483086D-02 -0.70657270D-02
  0.25687387D-04 -0.99134208D-04  0.73446821D-04 -0.11525245D-02  0.74268439D-03
 -0.14780550D-03
MO    4     MO 0.0        OCC NO =    2.0000000  ORB. ENERGY =    0.000000
  0.95894930D-01  0.17873238D+00  0.30306587D+00  0.45865797D+00  0.57213966D+00
  0.49098095D+00  0.18801962D+00  0.23357843D-03  0.25061433D-02  0.92381161D-02
  0.27011709D-01  0.32550423D-01 -0.39210434D-01 -0.12473157D-01 -0.70173736D-02
  0.12616386D-03 -0.29481035D+00 -0.28586687D+00 -0.19284410D+00  0.14036518D+01
  0.13610701D+01  0.91816983D+00  0.95563695D-01  0.92664639D-01  0.62511018D-01
 -0.66594172D-01  0.29124036D+00  0.22797919D-01 -0.10972567D-01  0.26869039D-01
  0.29144952D-02 -0.35451979D-03  0.26138170D-03  0.69156112D-04  0.62541460D-02
 -0.72079983D-02  0.95385229D-03  0.25164266D-03  0.11684785D-01 -0.12811010D+00
  0.14741228D-02 -0.97637110D-03 -0.49775170D-03  0.12052007D-03  0.30260420D-02
 -0.17338866D-01 -0.13892135D-04  0.11987571D-03 -0.10598357D-03  0.14376338D-04
  0.20496187D-03  0.10350776D-02  0.17529481D-02  0.71741070D-02  0.28591169D-06
 -0.39403154D-02 -0.15074462D-01 -0.18361894D-02 -0.13185287D-02 -0.64478594D-02
  0.18353316D-02  0.21425556D-03  0.63189700D-04  0.14442236D-03  0.17983111D-04
 -0.98470826D-04 -0.85117860D-03 -0.11228731D-03 -0.91098275D-04  0.41791152D-03
  0.58337981D-04 -0.26284901D-04 -0.41316986D-01 -0.74516885D-01 -0.10987510D+00
 -0.73377438D-01 -0.84511295D-02  0.11385351D-03 -0.39812303D-02 -0.27192555D-01
 -0.25795176D-01 -0.21835211D-02 -0.94810979D-02 -0.10012772D-01 -0.34140407D-03
  0.25443576D-03 -0.81955640D-04  0.74598262D-02 -0.62137306D-02 -0.12460956D-02
 -0.20882305D-02 -0.13478341D-02 -0.21297427D-01  0.42717591D-04  0.10449983D-03
 -0.14721742D-03 -0.21913000D-03 -0.11791533D-03 -0.61718256D-03  0.31178106D-01
  0.56230998D-01  0.82912574D-01  0.59899154D-01  0.72972979D-02 -0.11197233D-03
 -0.40928984D-02 -0.15542588D-01  0.24136911D-01 -0.22417804D-02 -0.58528378D-02
  0.10129002D-01 -0.34769865D-03  0.26869392D-03  0.25671174D-03 -0.60217711D-02
  0.27091641D-02  0.33126070D-02  0.20338752D-02 -0.15307284D-02 -0.18040180D-01
  0.57335616D-05 -0.22737456D-03  0.22164100D-03  0.21651144D-03 -0.13951952D-03
 -0.56879932D-03
MO    5     MO 0.0        OCC NO =    2.0000000  ORB. ENERGY =    0.000000
 -0.71980654D-01 -0.13416010D+00 -0.22748731D+00 -0.34427785D+00 -0.42945948D+00
 -0.36854013D+00 -0.14113129D+00 -0.16861981D-02 -0.18091799D-01 -0.66689778D-01
 -0.19499700D+00 -0.23498087D+00  0.28305935D+00  0.16545437D+00  0.91562016D-01
  0.71410731D-02 -0.38209821D+00 -0.37050673D+00 -0.24994165D+00  0.12861331D+00
  0.12471165D+00  0.84129743D-01  0.31717913D+00  0.30755706D+00  0.20747618D+00
 -0.86311468D-01  0.26207908D-01  0.65193385D-01 -0.14221341D-01  0.25152539D-02
  0.12555391D-01 -0.45948650D-03  0.28955832D-04  0.25661269D-03 -0.13023830D-01
  0.22275809D-01 -0.92519795D-02  0.32614937D-03  0.15144433D-01 -0.13345984D-01
 -0.44847092D-02  0.65950305D-02 -0.21103214D-02  0.15620382D-03  0.39219968D-02
 -0.17250482D-02 -0.15615931D-03  0.27561382D-03 -0.11945452D-03  0.18632904D-04
  0.26564726D-03  0.94779481D-04  0.22719634D-02  0.23016626D-03  0.24934391D-02
 -0.51069695D-02 -0.10589465D-02  0.19127490D-02 -0.17089206D-02  0.36844777D-03
 -0.93930663D-02  0.27769264D-03  0.81898995D-04  0.24870860D-04 -0.14538922D-03
 -0.12762621D-03 -0.20968528D-04  0.11340470D-03 -0.11807078D-03 -0.53644053D-04
  0.32276295D-03 -0.34067371D-04  0.10284278D-01  0.18548119D-01  0.27349190D-01
 -0.35414158D-02 -0.57332263D-02 -0.10783021D-03 -0.51599985D-02  0.13436953D-01
  0.13631096D-01 -0.28300211D-02 -0.20288383D-02  0.20372607D-02 -0.44248747D-03
 -0.48340796D-03  0.16674129D-03 -0.71380485D-03 -0.48929798D-03  0.12031028D-02
 -0.27065167D-02 -0.17469027D-02  0.41142228D-02  0.13258220D-03 -0.20347315D-03
  0.70890951D-04 -0.28401032D-03 -0.15282787D-03 -0.65724171D-04  0.16743901D-01
  0.30198314D-01  0.44527397D-01  0.78635306D-02 -0.44141460D-02 -0.12584906D-03
 -0.53047295D-02 -0.16440105D-01  0.19449696D-01 -0.29055298D-02  0.85161708D-03
  0.36745297D-02 -0.45064575D-03  0.53039797D-03  0.16194178D-03 -0.19825375D-02
 -0.15678713D-04  0.19982162D-02  0.26360678D-02 -0.19839486D-02 -0.76113325D-02
  0.13266106D-03 -0.22339173D-03  0.90730669D-04  0.28061645D-03 -0.18082865D-03
  0.21734637D-04
END DATA
 TOTAL ENERGY =    -76.465626552921 THE VIRIAL(-V/T)=   2.00634989
