 54
GAUSSIAN              5 MOL ORBITALS    126 PRIMITIVES        3 NUCLEI   B3LYP   B3LYP   B3LYP
  O    1    (CENTRE  1)   0.00000000  0.00000000  0.00815606  CHARGE =  8.0
  H    2    (CENTRE  2)   0.00000000 -1.34807204 -1.19178791  CHARGE =  1.0
  H    3    (CENTRE  3)   0.00000000  1.44255835 -1.09730160  CHARGE =  1.0
CENTRE ASSIGNMENTS    1  1  1  1  1  1  1  1  1  1  1  1  1  1  1  1  1  1  1  1
CENTRE ASSIGNMENTS    1  1  1  1  1  1  1  1  1  1  1  1  1  1  1  1  1  1  1  1
CENTRE ASSIGNMENTS    1  1  1  1  1  1  1  1  1  1  1  1  1  1  1  1  1  1  1  1
CENTRE ASSIGNMENTS    1  1  1  1  1  1  1  1  1  1  1  1  2  2  2  2  2  2  2  2
CENTRE ASSIGNMENTS    2  2  2  2  2  2  2  2  2  2  2  2  2  2  2  2  2  2  2  3
CENTRE ASSIGNMENTS    3  3  3  3  3  3  3  3  3  3  3  3  3  3  3  3  3  3  3  3
CENTRE ASSIGNMENTS    3  3  3  3  3  3
TYPE ASSIGNMENTS      1  1  1  1  1  1  1  1  1  1  1  1  1  1  1  1  2  2  2  3
TYPE ASSIGNMENTS      3  3  4  4  4  2  3  4  2  3  4  2  3  4  5  6  7  8  9 10
TYPE ASSIGNMENTS      5  6  7  8  9 10  5  6  7  8  9 10 11 12 13 17 14 15 18 19
TYPE ASSIGNMENTS     16 20 11 12 13 17 14 15 18 19 16 20  1  1  1  1  1  1  2  3
TYPE ASSIGNMENTS      4  2  3  4  2  3  4  5  6  7  8  9 10  5  6  7  8  9 10  1
TYPE ASSIGNMENTS      1  1  1  1  1  2  3  4  2  3  4  2  3  4  5  6  7  8  9 10
TYPE ASSIGNMENTS      5  6  7  8  9 10
EXPONENTS  0.1533000D+05 0.2299000D+04 0.5224000D+03 0.1473000D+03 0.4755000D+02
EXPONENTS  0.1676000D+02 0.6207000D+01 0.5224000D+03 0.1473000D+03 0.4755000D+02
EXPONENTS  0.1676000D+02 0.6207000D+01 0.6882000D+00 0.1752000D+01 0.2384000D+00
EXPONENTS  0.7376000D-01 0.3446000D+02 0.7749000D+01 0.2280000D+01 0.3446000D+02
EXPONENTS  0.7749000D+01 0.2280000D+01 0.3446000D+02 0.7749000D+01 0.2280000D+01
EXPONENTS  0.7156000D+00 0.7156000D+00 0.7156000D+00 0.2140000D+00 0.2140000D+00
EXPONENTS  0.2140000D+00 0.5974000D-01 0.5974000D-01 0.5974000D-01 0.2314000D+01
EXPONENTS  0.2314000D+01 0.2314000D+01 0.2314000D+01 0.2314000D+01 0.2314000D+01
EXPONENTS  0.6450000D+00 0.6450000D+00 0.6450000D+00 0.6450000D+00 0.6450000D+00
EXPONENTS  0.6450000D+00 0.2140000D+00 0.2140000D+00 0.2140000D+00 0.2140000D+00
EXPONENTS  0.2140000D+00 0.2140000D+00 0.1428000D+01 0.1428000D+01 0.1428000D+01
EXPONENTS  0.1428000D+01 0.1428000D+01 0.1428000D+01 0.1428000D+01 0.1428000D+01
EXPONENTS  0.1428000D+01 0.1428000D+01 0.5000000D+00 0.5000000D+00 0.5000000D+00
EXPONENTS  0.5000000D+00 0.5000000D+00 0.5000000D+00 0.5000000D+00 0.5000000D+00
EXPONENTS  0.5000000D+00 0.5000000D+00 0.3387000D+02 0.5095000D+01 0.1159000D+01
EXPONENTS  0.3258000D+00 0.1027000D+00 0.2526000D-01 0.1407000D+01 0.1407000D+01
EXPONENTS  0.1407000D+01 0.3880000D+00 0.3880000D+00 0.3880000D+00 0.1020000D+00
EXPONENTS  0.1020000D+00 0.1020000D+00 0.1057000D+01 0.1057000D+01 0.1057000D+01
EXPONENTS  0.1057000D+01 0.1057000D+01 0.1057000D+01 0.2470000D+00 0.2470000D+00
EXPONENTS  0.2470000D+00 0.2470000D+00 0.2470000D+00 0.2470000D+00 0.3387000D+02
EXPONENTS  0.5095000D+01 0.1159000D+01 0.3258000D+00 0.1027000D+00 0.2526000D-01
EXPONENTS  0.1407000D+01 0.1407000D+01 0.1407000D+01 0.3880000D+00 0.3880000D+00
EXPONENTS  0.3880000D+00 0.1020000D+00 0.1020000D+00 0.1020000D+00 0.1057000D+01
EXPONENTS  0.1057000D+01 0.1057000D+01 0.1057000D+01 0.1057000D+01 0.1057000D+01
EXPONENTS  0.2470000D+00 0.2470000D+00 0.2470000D+00 0.2470000D+00 0.2470000D+00
EXPONENTS  0.2470000D+00
MO    1     MO 0.0        OCC NO =    2.0000000  ORB. ENERGY =    0.000000
 -0.68978793D-01 -0.12856513D+00 -0.21800024D+00 -0.32992018D+00 -0.41154943D+00
 -0.35317064D+00 -0.13524559D+00  0.24505148D-03  0.26292416D-02  0.96918794D-02
  0.28338487D-01  0.34149255D-01 -0.41136396D-01 -0.33394494D-01 -0.51614013D-02
  0.40359249D-03  0.17210049D+01  0.16687958D+01  0.11257598D+01  0.31335784D-01
  0.30385170D-01  0.20497656D-01  0.21507838D+00  0.20855368D+00  0.14068908D+00
  0.38859343D+00  0.63082141D-02  0.46867204D-01  0.63824506D-01  0.56023096D-03
  0.48124945D-02  0.20317225D-02  0.42757394D-05  0.91702973D-04  0.96962771D-02
 -0.29940731D-02 -0.67022039D-02  0.21208368D-02 -0.72537374D-01 -0.36013459D-02
  0.16204429D-02  0.31029574D-03 -0.19307387D-02  0.72560106D-03 -0.18631252D-01
 -0.25857312D-03 -0.12310296D-03  0.20012621D-03 -0.77023250D-04  0.66672959D-04
 -0.12122070D-02  0.58665513D-04 -0.10376860D-01  0.24440461D-04 -0.48853173D-05
  0.20147774D-01 -0.23413386D-03 -0.37494396D-02  0.10982807D-01  0.16081248D-03
  0.37640955D-02  0.75524012D-03 -0.36677785D-03  0.23253239D-04  0.16133368D-03
  0.52681105D-03 -0.13399052D-04 -0.20422069D-05  0.57352250D-03 -0.56360665D-04
 -0.48195882D-03 -0.98630466D-04 -0.79997624D-02 -0.14427901D-01 -0.21273931D-01
 -0.11796701D-01 -0.91570275D-03  0.27438740D-05  0.24302253D-01 -0.71843746D-02
 -0.41381926D-02  0.13141325D-01 -0.19850486D-02 -0.80722881D-03  0.20052441D-02
  0.47166217D-04  0.15500536D-03  0.10171280D-02 -0.10571957D-02  0.40067733D-04
  0.11432292D-01  0.96532076D-02 -0.26352074D-02 -0.37053388D-05 -0.22632259D-05
  0.59685647D-05  0.11911862D-02  0.84625638D-03  0.86276534D-04 -0.59534109D-02
 -0.10737222D-01 -0.15832027D-01 -0.80276159D-02 -0.48666585D-03 -0.42002613D-05
  0.23923632D-01  0.62419741D-02 -0.20283061D-02  0.12942126D-01  0.16257410D-02
 -0.71232985D-04  0.19837144D-02 -0.39514450D-04  0.15883448D-03  0.62281732D-03
 -0.10433369D-02  0.42051960D-03 -0.11948263D-01  0.86577149D-02  0.12538300D-02
 -0.42822972D-05 -0.39342594D-05  0.82165567D-05 -0.12277301D-02  0.73519236D-03
 -0.10503387D-03
MO    2     MO 0.0        OCC NO =    2.0000000  ORB. ENERGY =    0.000000
  0.61559618D-01  0.11473701D+00  0.19455272D+00  0.29443485D+00  0.36728427D+00
  0.31518454D+00  0.12069894D+00 -0.50646538D-03 -0.54340412D-02 -0.20030899D-01
 -0.58569174D-01 -0.70578702D-01  0.85019526D-01  0.59257734D-01 -0.87693824D-02
 -0.41321676D-02  0.32335329D+00  0.31354392D+00  0.21151488D+00  0.91609270D+00
  0.88830176D+00  0.59924312D+00 -0.98028343D+00 -0.95054518D+00 -0.64123216D+00
  0.73011394D-01  0.19035557D+00 -0.21342190D+00  0.11991752D-01  0.18774003D-01
 -0.23906189D-01  0.38173288D-03  0.20284971D-03 -0.45283713D-03 -0.35766108D-01
  0.86654608D-02  0.27100647D-01  0.39847623D-03 -0.13628781D-01 -0.84929200D-01
 -0.56121744D-02 -0.25798556D-02  0.81920300D-02  0.13633052D-03 -0.35005575D-02
 -0.11872522D-01  0.53371038D-03 -0.91462738D-03  0.38091700D-03  0.12526938D-04
 -0.22775711D-03  0.36309892D-03 -0.19496702D-02  0.42347213D-02 -0.10947307D-02
  0.37854913D-02 -0.93090674D-02  0.14272562D-01  0.20635193D-02 -0.33950966D-02
 -0.10988370D-01  0.14189929D-03 -0.68912544D-04 -0.17217700D-04 -0.55487197D-03
  0.98980594D-04 -0.55187989D-03  0.14781983D-03  0.10775704D-03  0.60353299D-03
  0.15167961D-02 -0.18531316D-04  0.30758996D-02  0.55475115D-02  0.81798025D-02
  0.84182179D-03 -0.31491978D-03  0.11290325D-03  0.45660611D-02  0.13386228D-01
 -0.96131834D-02  0.24690752D-02  0.45066002D-02 -0.56779710D-02  0.37675795D-03
  0.19841504D-03 -0.80711628D-03  0.78274391D-03  0.37538017D-02 -0.45365456D-02
  0.21479714D-02  0.18137057D-02 -0.41103464D-02  0.37781521D-04  0.17760946D-03
 -0.21539098D-03  0.22380760D-03  0.15900000D-03 -0.66802710D-03  0.47640132D-01
  0.85920939D-01  0.12669038D+00  0.83470465D-01  0.99427577D-02 -0.31284378D-04
  0.44949233D-02 -0.36500884D-01  0.23229431D-01  0.24316486D-02 -0.13149910D-01
  0.76354258D-02  0.37271281D-03  0.18301501D-03 -0.54805758D-03 -0.77097917D-02
  0.72798081D-02  0.42998363D-03 -0.22449152D-02  0.16266663D-02 -0.20190300D-01
 -0.10269956D-03  0.11098753D-04  0.91600802D-04 -0.23067370D-03  0.13813259D-03
 -0.37213162D-04
MO    3     MO 0.0        OCC NO =    2.0000000  ORB. ENERGY =    0.000000
 -0.43670614D-01 -0.81394844D-01 -0.13801640D+00 -0.20887314D+00 -0.26055278D+00
 -0.22359305D+00 -0.85624259D-01  0.30009638D-03  0.32198372D-02  0.11868926D-01
  0.34704044D-01  0.41820061D-01 -0.50376695D-01 -0.36076153D-01  0.12151947D-01
  0.35537775D-02 -0.28894705D+00 -0.28018144D+00 -0.18900875D+00  0.11582773D+01
  0.11231394D+01  0.75766319D+00  0.82933863D+00  0.80417950D+00  0.54249474D+00
 -0.65242654D-01  0.23914847D+00  0.17902342D+00 -0.10715776D-01  0.22998710D-01
  0.19791638D-01 -0.34111479D-03  0.23217906D-03  0.36262450D-03  0.26648062D-01
  0.57797125D-03 -0.27226033D-01 -0.35607658D-03  0.12178617D-01 -0.11165385D+00
  0.39311940D-02  0.31637655D-02 -0.70949595D-02 -0.12182434D-03  0.31280825D-02
 -0.13734867D-01 -0.45291429D-03  0.69248175D-03 -0.23956747D-03 -0.11194015D-04
  0.20352274D-03  0.81744641D-03  0.17422165D-02  0.47922327D-02  0.77035882D-03
 -0.33826981D-02 -0.11266030D-01 -0.11293867D-01 -0.18439516D-02 -0.31106681D-02
  0.89827910D-02 -0.12680057D-03  0.61579940D-04  0.12553682D-03  0.45858209D-03
 -0.88448615D-04 -0.67141188D-03 -0.10372763D-03 -0.96291205D-04  0.29480144D-03
 -0.12720186D-02  0.16559501D-04 -0.48950786D-01 -0.88284758D-01 -0.13017582D+00
 -0.88551840D-01 -0.10719800D-01  0.61189284D-04 -0.40802117D-02 -0.32806215D-01
 -0.29895344D-01 -0.22063546D-02 -0.12125353D-01 -0.10663844D-01 -0.33666922D-03
  0.21086207D-03  0.37828583D-03  0.84490626D-02 -0.51198976D-02 -0.33291650D-02
 -0.19194176D-02 -0.16207193D-02 -0.23602090D-01  0.91467101D-04  0.53589804D-04
 -0.14505690D-03 -0.19999347D-03 -0.14208169D-03 -0.14027529D-03  0.11544713D-01
  0.20821365D-01  0.30701091D-01  0.23787317D-01  0.29809228D-02 -0.13544639D-03
 -0.40166433D-02  0.15564817D-02  0.18625515D-01 -0.21729103D-02  0.47761742D-03
  0.85811004D-02 -0.33305449D-03  0.22284719D-03  0.70105599D-03 -0.31700406D-02
 -0.13715715D-02  0.45416121D-02  0.20060462D-02 -0.14535817D-02 -0.11794555D-01
 -0.60051279D-04 -0.13345525D-03  0.19350653D-03  0.20612899D-03 -0.12343467D-03
 -0.75177331D-03
MO    4     MO 0.0        OCC NO =    2.0000000  ORB. ENERGY =    0.000000
  0.49436515D+00  0.92141536D+00  0.15623892D+01  0.23645099D+01  0.29495398D+01
  0.25311440D+01  0.96929367D+00  0.33394331D-03  0.35829926D-02  0.13207585D-01
  0.38618205D-01  0.46536815D-01 -0.56058525D-01  0.23898049D-01 -0.30245017D-02
  0.90638143D-03  0.19440554D+00  0.18850798D+00  0.12716637D+00 -0.16109220D-01
 -0.15620525D-01 -0.10537514D-01  0.28254052D+00  0.27396926D+00  0.18481805D+00
  0.43895702D-01 -0.37774025D-02  0.62345208D-01  0.72096470D-02 -0.48128967D-03
  0.64027188D-02  0.22950435D-03 -0.83458787D-05  0.11667046D-03  0.94456290D-02
 -0.11288660D-02 -0.83167630D-02  0.23957074D-03 -0.81938567D-02  0.11473713D-02
  0.21412222D-02  0.36397844D-03 -0.25052007D-02  0.81964246D-04 -0.21045952D-02
  0.45878305D-03 -0.12804158D-03  0.22873753D-03 -0.10069594D-03  0.75314096D-05
 -0.13693148D-03  0.52647906D-04 -0.11721751D-02 -0.78644375D-04  0.62058930D-03
  0.22759023D-02  0.29061108D-03 -0.32393739D-02  0.12406232D-02 -0.54677951D-04
  0.13776060D-02  0.85312288D-04 -0.41431403D-04 -0.17361565D-05  0.74283133D-04
  0.59508830D-04  0.26048513D-04 -0.36253662D-03  0.64785378D-04 -0.20840044D-04
  0.13968722D-03 -0.11141345D-04 -0.87556147D-02 -0.15791112D-01 -0.23283985D-01
 -0.13943660D-01 -0.13556860D-02 -0.76215387D-05  0.27451942D-02 -0.92097453D-02
 -0.43583773D-02  0.14844504D-02 -0.32633302D-02 -0.12082405D-02  0.22651334D-03
 -0.29446502D-04  0.15140022D-03  0.22488689D-02 -0.21867147D-02 -0.62154138D-04
  0.12913972D-02  0.10904310D-02 -0.62859928D-02  0.12600087D-04 -0.27965790D-04
  0.15365703D-04  0.13455697D-03  0.95593528D-04  0.62247670D-04 -0.89843956D-02
 -0.16203727D-01 -0.23892387D-01 -0.14141173D-01 -0.13669667D-02 -0.43514120D-05
  0.27024250D-02  0.93336538D-02 -0.37042797D-02  0.14619488D-02  0.32467622D-02
 -0.96783953D-03  0.22408133D-03  0.50153859D-05  0.15544936D-03  0.21920210D-02
 -0.25430107D-02  0.35098968D-03 -0.13496815D-02  0.97797965D-03  0.57508248D-02
  0.15245918D-04 -0.20204505D-04  0.49585864D-05 -0.13868499D-03  0.83047684D-04
 -0.57400832D-04
MO    5     MO 0.0        OCC NO =    2.0000000  ORB. ENERGY =    0.000000
 -0.66796220D-01 -0.12449717D+00 -0.21110245D+00 -0.31948111D+00 -0.39852750D+00
 -0.34199588D+00 -0.13096625D+00 -0.15905317D-02 -0.17065361D-01 -0.62906134D-01
 -0.18393385D+00 -0.22164923D+00  0.26699999D+00  0.15651622D+00  0.10652429D+00
  0.10049338D-01  0.14848872D+00  0.14398411D+00  0.97130829D-01 -0.83091077D-01
 -0.80570394D-01 -0.54352312D-01  0.88582110D+00  0.85894849D+00  0.57944158D+00
  0.33527936D-01 -0.17327738D-01  0.18829726D+00  0.55067939D-02 -0.19922134D-02
  0.26411634D-01  0.17529751D-03 -0.28559392D-04  0.47615070D-03  0.49925986D-02
  0.18434196D-01 -0.23426794D-01  0.18298631D-03 -0.62585422D-02  0.79128081D-02
 -0.17134886D-02  0.77014981D-02 -0.59880095D-02  0.62605036D-04 -0.16075089D-02
  0.15232487D-02 -0.44914167D-03  0.72027230D-03 -0.27113062D-03  0.57525591D-05
 -0.10458951D-03  0.51120508D-04 -0.89531803D-03 -0.76657722D-04  0.31271018D-02
  0.17383548D-02  0.68207531D-03 -0.53596900D-02  0.94759924D-03 -0.45210215D-03
 -0.40216154D-02  0.65162301D-04 -0.31645682D-04  0.14543012D-04  0.13353555D-03
  0.45453385D-04  0.16469622D-04 -0.25429852D-04  0.49483660D-04 -0.60098660D-04
 -0.37517680D-03 -0.85098605D-05  0.22290097D-02  0.40201108D-02  0.59276510D-02
 -0.19167068D-01 -0.77860629D-02 -0.14861549D-03  0.20968043D-02  0.23370747D-02
  0.16428356D-01  0.11338367D-02 -0.61292278D-02  0.25512884D-02  0.17301295D-03
 -0.52986457D-03  0.49896213D-03  0.37313021D-05 -0.30213401D-02  0.30176088D-02
  0.98638094D-03  0.83288109D-03  0.17952631D-02  0.12216248D-03 -0.21964133D-03
  0.97478858D-04  0.10277583D-03  0.73015205D-04  0.10029717D-03 -0.51395844D-03
 -0.92694521D-03 -0.13667802D-02 -0.23924280D-01 -0.84208037D-02 -0.14106337D-03
  0.20641367D-02 -0.20510663D-02  0.14016768D-01  0.11166498D-02  0.64717103D-02
  0.21637285D-02  0.17115536D-03  0.48651558D-03  0.51323190D-03  0.53202644D-03
 -0.30998861D-02  0.25678596D-02 -0.10308990D-02  0.74698974D-03 -0.10454780D-02
  0.13645860D-03 -0.21181119D-03  0.75352594D-04 -0.10592885D-03  0.63432575D-04
 -0.89345797D-04
END DATA
 TOTAL ENERGY =    -76.465682720420 THE VIRIAL(-V/T)=   2.00567945
