 54
GAUSSIAN              5 MOL ORBITALS    126 PRIMITIVES        3 NUCLEI   B3LYP   B3LYP   B3LYP
  O    1    (CENTRE  1)   0.00000000  0.00000000  0.00815606  CHARGE =  8.0
  H    2    (CENTRE  2)   0.00000000 -1.53704465 -1.19178791  CHARGE =  1.0
  H    3    (CENTRE  3)   0.00000000  1.44255835 -1.09730160  CHARGE =  1.0
CENTRE ASSIGNMENTS    1  1  1  1  1  1  1  1  1  1  1  1  1  1  1  1  1  1  1  1
CENTRE ASSIGNMENTS    1  1  1  1  1  1  1  1  1  1  1  1  1  1  1  1  1  1  1  1
CENTRE ASSIGNMENTS    1  1  1  1  1  1  1  1  1  1  1  1  1  1  1  1  1  1  1  1
CENTRE ASSIGNMENTS    1  1  1  1  1  1  1  1  1  1  1  1  2  2  2  2  2  2  2  2
CENTRE ASSIGNMENTS    2  2  2  2  2  2  2  2  2  2  2  2  2  2  2  2  2  2  2  3
CENTRE ASSIGNMENTS    3  3  3  3  3  3  3  3  3  3  3  3  3  3  3  3  3  3  3  3
CENTRE ASSIGNMENTS    3  3  3  3  3  3
TYPE ASSIGNMENTS      1  1  1  1  1  1  1  1  1  1  1  1  1  1  1  1  2  2  2  3
TYPE ASSIGNMENTS      3  3  4  4  4  2  3  4  2  3  4  2  3  4  5  6  7  8  9 10
TYPE ASSIGNMENTS      5  6  7  8  9 10  5  6  7  8  9 10 11 12 13 17 14 15 18 19
TYPE ASSIGNMENTS     16 20 11 12 13 17 14 15 18 19 16 20  1  1  1  1  1  1  2  3
TYPE ASSIGNMENTS      4  2  3  4  2  3  4  5  6  7  8  9 10  5  6  7  8  9 10  1
TYPE ASSIGNMENTS      1  1  1  1  1  2  3  4  2  3  4  2  3  4  5  6  7  8  9 10
TYPE ASSIGNMENTS      5  6  7  8  9 10
EXPONENTS  0.1533000D+05 0.2299000D+04 0.5224000D+03 0.1473000D+03 0.4755000D+02
EXPONENTS  0.1676000D+02 0.6207000D+01 0.5224000D+03 0.1473000D+03 0.4755000D+02
EXPONENTS  0.1676000D+02 0.6207000D+01 0.6882000D+00 0.1752000D+01 0.2384000D+00
EXPONENTS  0.7376000D-01 0.3446000D+02 0.7749000D+01 0.2280000D+01 0.3446000D+02
EXPONENTS  0.7749000D+01 0.2280000D+01 0.3446000D+02 0.7749000D+01 0.2280000D+01
EXPONENTS  0.7156000D+00 0.7156000D+00 0.7156000D+00 0.2140000D+00 0.2140000D+00
EXPONENTS  0.2140000D+00 0.5974000D-01 0.5974000D-01 0.5974000D-01 0.2314000D+01
EXPONENTS  0.2314000D+01 0.2314000D+01 0.2314000D+01 0.2314000D+01 0.2314000D+01
EXPONENTS  0.6450000D+00 0.6450000D+00 0.6450000D+00 0.6450000D+00 0.6450000D+00
EXPONENTS  0.6450000D+00 0.2140000D+00 0.2140000D+00 0.2140000D+00 0.2140000D+00
EXPONENTS  0.2140000D+00 0.2140000D+00 0.1428000D+01 0.1428000D+01 0.1428000D+01
EXPONENTS  0.1428000D+01 0.1428000D+01 0.1428000D+01 0.1428000D+01 0.1428000D+01
EXPONENTS  0.1428000D+01 0.1428000D+01 0.5000000D+00 0.5000000D+00 0.5000000D+00
EXPONENTS  0.5000000D+00 0.5000000D+00 0.5000000D+00 0.5000000D+00 0.5000000D+00
EXPONENTS  0.5000000D+00 0.5000000D+00 0.3387000D+02 0.5095000D+01 0.1159000D+01
EXPONENTS  0.3258000D+00 0.1027000D+00 0.2526000D-01 0.1407000D+01 0.1407000D+01
EXPONENTS  0.1407000D+01 0.3880000D+00 0.3880000D+00 0.3880000D+00 0.1020000D+00
EXPONENTS  0.1020000D+00 0.1020000D+00 0.1057000D+01 0.1057000D+01 0.1057000D+01
EXPONENTS  0.1057000D+01 0.1057000D+01 0.1057000D+01 0.2470000D+00 0.2470000D+00
EXPONENTS  0.2470000D+00 0.2470000D+00 0.2470000D+00 0.2470000D+00 0.3387000D+02
EXPONENTS  0.5095000D+01 0.1159000D+01 0.3258000D+00 0.1027000D+00 0.2526000D-01
EXPONENTS  0.1407000D+01 0.1407000D+01 0.1407000D+01 0.3880000D+00 0.3880000D+00
EXPONENTS  0.3880000D+00 0.1020000D+00 0.1020000D+00 0.1020000D+00 0.1057000D+01
EXPONENTS  0.1057000D+01 0.1057000D+01 0.1057000D+01 0.1057000D+01 0.1057000D+01
EXPONENTS  0.2470000D+00 0.2470000D+00 0.2470000D+00 0.2470000D+00 0.2470000D+00
EXPONENTS  0.2470000D+00
MO    1     MO 0.0        OCC NO =    2.0000000  ORB. ENERGY =    0.000000
  0.25449054D-01  0.47432852D-01  0.80429067D-01  0.12172084D+00  0.15183715D+00
  0.13029887D+00  0.49897544D-01  0.23860839D-03  0.25601115D-02  0.94370529D-02
  0.27593389D-01  0.33251376D-01 -0.40054806D-01 -0.20044671D-01 -0.10877965D-01
  0.16553910D-03  0.10546813D+00  0.10226861D+00  0.68989798D-01  0.14166238D+01
  0.13736486D+01  0.92665522D+00  0.21885069D+00  0.21221155D+00  0.14315666D+00
  0.23823103D-01  0.30116861D+00  0.52836861D-01  0.39690536D-02  0.31893429D-01
  0.80358852D-02  0.13012613D-03  0.36029914D-03  0.14877883D-03  0.71809227D-02
  0.53930754D-03 -0.77202302D-02  0.35323503D-03 -0.41177186D-02 -0.12996616D+00
  0.26297733D-02 -0.59115578D-03 -0.20386175D-02 -0.16419805D-05 -0.11182722D-02
 -0.21715269D-01  0.22623918D-03 -0.74743742D-04 -0.15149544D-03 -0.12803718D-04
 -0.82901842D-04  0.20639327D-04 -0.61683829D-03  0.65643016D-02 -0.45208140D-03
  0.12808943D-02 -0.17066922D-01 -0.44659528D-02  0.56962058D-03 -0.26259825D-02
  0.58221970D-02 -0.62385466D-04 -0.31913973D-04  0.74637378D-04 -0.35838546D-04
  0.53175142D-04 -0.12561713D-02 -0.48492337D-03  0.42566777D-04  0.10322592D-02
  0.59243901D-03  0.53495716D-04 -0.41423490D-01 -0.74708970D-01 -0.11015833D+00
 -0.70715076D-01 -0.94796318D-02  0.13150158D-03  0.12509407D-02 -0.20509601D-01
 -0.23422813D-01  0.68820128D-03 -0.73357909D-02 -0.94823875D-02  0.11093025D-03
  0.25404763D-03 -0.54767997D-04  0.60086314D-02 -0.30893713D-02 -0.29192601D-02
  0.64339209D-03  0.48477882D-03 -0.17260529D-01  0.24859341D-03 -0.16782254D-05
 -0.24691519D-03  0.62064132D-04  0.36512892D-04 -0.95827761D-03  0.29685888D-01
  0.53539722D-01  0.78944289D-01  0.56814623D-01  0.67228759D-02 -0.13478813D-03
  0.14702086D-02 -0.12521441D-01  0.24659885D-01  0.80115584D-03 -0.44863308D-02
  0.10394414D-01  0.12394898D-03  0.46256145D-03  0.29396330D-03 -0.57120940D-02
  0.15930310D-02  0.41190630D-02 -0.73564814D-03  0.54783608D-03 -0.17308429D-01
 -0.15921932D-04 -0.29346540D-03  0.30938733D-03 -0.75980702D-04  0.48850836D-04
 -0.52317444D-03
MO    2     MO 0.0        OCC NO =    2.0000000  ORB. ENERGY =    0.000000
 -0.15705583D-01 -0.29272625D-01 -0.49635849D-01 -0.75118579D-01 -0.93704507D-01
 -0.80412408D-01 -0.30793680D-01  0.91750675D-04  0.98442453D-03  0.36287742D-02
  0.10610323D-01  0.12785955D-01 -0.15402038D-01 -0.10898251D-01  0.22828932D-01
  0.48150750D-02  0.14763545D+01  0.14315673D+01  0.96572683D+00 -0.23176833D+00
 -0.22473732D+00 -0.15160647D+00  0.83864055D+00  0.81319923D+00  0.54857940D+00
  0.33347844D+00 -0.46623695D-01  0.18260650D+00  0.55559252D-01 -0.37934842D-02
  0.22223681D-01  0.18215199D-02 -0.44944845D-04  0.43136480D-03  0.24282805D-01
 -0.29576059D-02 -0.21325199D-01  0.49446231D-02 -0.57640282D-01  0.24060471D-01
  0.35407648D-02  0.29560607D-02 -0.64968255D-02 -0.22984625D-04 -0.15653698D-01
  0.22542302D-02 -0.36830500D-03  0.71891120D-03 -0.35060620D-03 -0.17922786D-03
 -0.11604692D-02 -0.42259793D-03 -0.86345707D-02 -0.84745278D-03  0.61386968D-03
  0.17930100D-01  0.20168168D-02 -0.10280719D-01  0.79736120D-02  0.52554152D-03
  0.84391100D-02 -0.87327867D-03 -0.44673533D-03 -0.10649451D-03  0.38597420D-03
  0.74435153D-03  0.46250391D-04 -0.24371715D-03  0.59585447D-03  0.27323315D-03
 -0.91420544D-03  0.74883897D-03 -0.10634613D-01 -0.19179963D-01 -0.28280845D-01
 -0.20454601D-01 -0.43107016D-02 -0.94561285D-04  0.17510806D-01 -0.10656965D-01
  0.23529165D-02  0.96335178D-02 -0.57935762D-02  0.10371040D-02  0.15528140D-02
 -0.30365190D-03  0.47159182D-03  0.99384565D-03 -0.30091321D-02  0.20152865D-02
  0.90062738D-02  0.67859876D-02 -0.13703155D-02  0.16391696D-03 -0.24853308D-03
  0.84616117D-04  0.86878059D-03  0.51111150D-03  0.54338073D-04 -0.22687970D-01
 -0.40918688D-01 -0.60334582D-01 -0.43216362D-01 -0.62116165D-02 -0.38444257D-04
  0.20580143D-01  0.19525039D-01 -0.60523603D-02  0.11214668D-01  0.84642014D-02
 -0.18764479D-02  0.17350516D-02  0.85962936D-04  0.52544959D-03  0.34511877D-02
 -0.47284051D-02  0.12772173D-02 -0.10297684D-01  0.76686702D-02  0.85765545D-02
  0.75058887D-04 -0.14828575D-03  0.73226865D-04 -0.10635863D-02  0.68381942D-03
 -0.13893522D-03
MO    3     MO 0.0        OCC NO =    2.0000000  ORB. ENERGY =    0.000000
  0.58454191D-02  0.10894900D-01  0.18473834D-01  0.27958183D-01  0.34875630D-01
  0.29928479D-01  0.11461018D-01 -0.76747163D-04 -0.82344670D-03 -0.30353796D-02
 -0.88752718D-02 -0.10695134D-01  0.12883422D-01  0.94575090D-02  0.45671929D-01
  0.81261192D-02 -0.10008891D+01 -0.97052571D+00 -0.65471091D+00 -0.17039796D+00
 -0.16522870D+00 -0.11146231D+00  0.13038038D+01  0.12642511D+01  0.85285631D+00
 -0.22608047D+00 -0.32465646D-01  0.28391480D+00 -0.37666188D-01 -0.18111964D-02
  0.35316620D-01 -0.12348927D-02 -0.21980374D-04  0.68354111D-03  0.34690748D-01
 -0.13486438D-02 -0.33342105D-01 -0.33521888D-02  0.39077014D-01  0.19347373D-01
  0.48474594D-02  0.51793221D-02 -0.10026781D-01  0.15582341D-04  0.10612366D-01
  0.87565780D-03 -0.54152397D-03  0.10888037D-02 -0.54727968D-03  0.12150686D-03
  0.78673576D-03 -0.60399664D-03  0.58537750D-02 -0.45824696D-03  0.12307552D-02
 -0.12155645D-01  0.92199020D-03 -0.15288391D-01 -0.54056806D-02  0.45275067D-03
  0.11596125D-01  0.59203602D-03  0.30286255D-03 -0.14465276D-03  0.54876735D-03
 -0.50463035D-03 -0.49173988D-04 -0.39611432D-03 -0.40395732D-03  0.48313227D-03
 -0.12501877D-02 -0.50767259D-03 -0.19026098D-01 -0.34314351D-01 -0.50596491D-01
 -0.38480954D-01 -0.81925926D-02 -0.13889959D-03 -0.11871386D-01 -0.16394006D-01
  0.27214577D-02 -0.65310075D-02 -0.96139377D-02  0.74733156D-03 -0.10527244D-02
 -0.48454481D-03  0.70440247D-03  0.20844049D-02 -0.49133513D-02  0.28289465D-02
 -0.61057698D-02 -0.46005350D-02 -0.36143493D-02  0.28355296D-03 -0.39093979D-03
  0.10738683D-03 -0.58898657D-03 -0.34650614D-03 -0.33684864D-04 -0.27862729D-01
 -0.50251579D-01 -0.74095923D-01 -0.56590485D-01 -0.91032803D-02 -0.90595042D-04
 -0.13952231D-01  0.25087167D-01 -0.35271845D-02 -0.76029426D-02  0.12143811D-01
 -0.11821844D-02 -0.11762718D-02  0.25573121D-03  0.82101936D-03  0.42540264D-02
 -0.68302822D-02  0.25762558D-02  0.69812767D-02 -0.51989464D-02  0.99013269D-02
  0.12564443D-03 -0.27723929D-03  0.15159487D-03  0.72105436D-03 -0.46359283D-03
 -0.25268778D-03
MO    4     MO 0.0        OCC NO =    2.0000000  ORB. ENERGY =    0.000000
 -0.19666685D+00 -0.36655467D+00 -0.62154495D+00 -0.94064219D+00 -0.11733770D+01
 -0.10069320D+01 -0.38560147D+00 -0.17095718D-02 -0.18342584D-01 -0.67614217D-01
 -0.19770000D+00 -0.23823812D+00  0.28698306D+00  0.15337250D+00  0.92194452D-01
  0.70345955D-02  0.12175593D+00  0.11806229D+00  0.79644126D-01  0.18718935D+00
  0.18151071D+00  0.12244605D+00  0.30545573D+00  0.29618931D+00  0.19980756D+00
  0.27502186D-01  0.37681453D-01  0.61607869D-01  0.45820080D-02  0.32609248D-02
  0.11671845D-01  0.15022195D-03  0.38921347D-04  0.22112317D-03 -0.11912887D-01
  0.19387769D-01 -0.74748818D-02  0.40778631D-03 -0.47536319D-02 -0.19118727D-01
 -0.48647466D-02  0.64680124D-02 -0.16032659D-02 -0.18955571D-05 -0.12909708D-02
 -0.93105804D-03 -0.19184708D-03  0.29110999D-03 -0.99262912D-04 -0.14781039D-04
 -0.95704655D-04  0.20920894D-03 -0.71209871D-03  0.84134297D-03  0.23768232D-02
  0.14787071D-02 -0.15807697D-02  0.18707872D-02  0.65758902D-03 -0.94325925D-03
 -0.90012566D-02 -0.72019865D-04 -0.36842556D-04  0.37354471D-04 -0.22787146D-04
  0.61387159D-04  0.80913729D-04  0.31560459D-03  0.49140509D-04 -0.19297714D-03
 -0.24724315D-03  0.61757241D-04  0.66277905D-02  0.11953493D-01  0.17625418D-01
 -0.77084476D-02 -0.61617218D-02 -0.99309997D-04  0.14441277D-02  0.99934497D-02
  0.11318451D-01  0.79448254D-03 -0.23412132D-02  0.11212901D-02  0.12806159D-03
 -0.45998969D-03  0.88133739D-04 -0.24310697D-03 -0.82594898D-03  0.10690560D-02
  0.74275331D-03  0.55964485D-03  0.19261625D-02  0.12138715D-03 -0.17521172D-03
  0.53824575D-04  0.71648906D-04  0.42151701D-04 -0.12632324D-03  0.18362535D-01
  0.33117588D-01  0.48831865D-01  0.10718879D-01 -0.40465750D-02 -0.13400378D-03
  0.16972579D-02 -0.17948833D-01  0.20602206D-01  0.92488106D-03  0.98919410D-04
  0.40885465D-02  0.14309085D-03  0.50623961D-03  0.14957517D-03 -0.26390203D-02
  0.72414487D-03  0.19148755D-02 -0.84925678D-03  0.63244027D-03 -0.92742239D-02
  0.10166411D-03 -0.17768747D-03  0.76023366D-04 -0.87714659D-04  0.56395037D-04
 -0.43353786D-05
MO    5     MO 0.0        OCC NO =    2.0000000  ORB. ENERGY =    0.000000
  0.46868993D+00  0.87356097D+00  0.14812454D+01  0.22417074D+01  0.27963533D+01
  0.23996871D+01  0.91895269D+00 -0.27289896D-03 -0.29280268D-02 -0.10793258D-01
 -0.31558854D-01 -0.38029953D-01  0.45811109D-01  0.83822409D-01  0.17993179D-01
  0.14035201D-02  0.10731811D+00  0.10406246D+00  0.70199923D-01 -0.53793106D-02
 -0.52161218D-02 -0.35187650D-02  0.61120469D-01  0.59266295D-01  0.39980692D-01
  0.24240976D-01 -0.12147820D-03  0.13991607D-01  0.40386733D-02  0.25106399D-03
  0.25097403D-02  0.13240862D-03  0.15054572D-04  0.43673494D-04 -0.40564720D-02
  0.55831821D-02 -0.15267101D-02  0.35943100D-03 -0.41899460D-02 -0.11377990D-02
 -0.56561506D-03  0.88114173D-03 -0.31552668D-03 -0.16707819D-05 -0.11378874D-02
 -0.44704554D-03  0.11562218D-04  0.78512097D-05 -0.19413427D-04 -0.13028303D-04
 -0.84355993D-04 -0.77139619D-04 -0.62765802D-03 -0.21214495D-04  0.78130369D-03
  0.13033620D-02 -0.57997992D-03  0.11110795D-02  0.57961209D-03  0.64362340D-03
 -0.34549906D-02 -0.63479747D-04 -0.32473764D-04  0.20778473D-06 -0.13068829D-03
  0.54107867D-04  0.47844964D-04 -0.22304103D-03  0.43313426D-04 -0.48468318D-04
  0.61510591D-03  0.54434065D-04  0.20437516D-02  0.36859903D-02  0.54349905D-02
  0.74370261D-03 -0.79881422D-03 -0.11132760D-04  0.12728830D-02  0.25272989D-02
  0.31906094D-02  0.70027277D-03 -0.96571479D-04  0.74944287D-03  0.11287604D-03
 -0.69561308D-04  0.35757991D-04  0.13856101D-03 -0.45453039D-03  0.31596938D-03
  0.65467760D-03  0.49328215D-03 -0.79922238D-04  0.75218131D-05 -0.26597217D-04
  0.19075404D-04  0.63152776D-04  0.37153351D-04  0.23400296D-04  0.22486846D-02
  0.40555953D-02  0.59799729D-02 -0.12611558D-02 -0.14646183D-02 -0.31556911D-04
  0.14959970D-02 -0.19606994D-02  0.27566320D-02  0.81520863D-03  0.11141273D-02
 -0.65387305D-04  0.12612313D-03  0.17353674D-03 -0.29967073D-04  0.80500865D-03
 -0.10411604D-02  0.23615171D-03 -0.74855188D-03  0.55744548D-03  0.18894671D-02
  0.39542750D-04 -0.55700628D-04  0.16157877D-04 -0.77313452D-04  0.49707711D-04
  0.73718124D-04
END DATA
 TOTAL ENERGY =    -76.462238882779 THE VIRIAL(-V/T)=   2.00742380
