 55
GAUSSIAN              5 MOL ORBITALS    126 PRIMITIVES        3 NUCLEI   B3LYP   B3LYP   B3LYP
  O    1    (CENTRE  1)   0.00000000  0.00000000  0.00815606  CHARGE =  8.0
  H    2    (CENTRE  2)   0.00000000 -1.44255835 -1.00281530  CHARGE =  1.0
  H    3    (CENTRE  3)   0.00000000  1.44255835 -1.09730160  CHARGE =  1.0
CENTRE ASSIGNMENTS    1  1  1  1  1  1  1  1  1  1  1  1  1  1  1  1  1  1  1  1
CENTRE ASSIGNMENTS    1  1  1  1  1  1  1  1  1  1  1  1  1  1  1  1  1  1  1  1
CENTRE ASSIGNMENTS    1  1  1  1  1  1  1  1  1  1  1  1  1  1  1  1  1  1  1  1
CENTRE ASSIGNMENTS    1  1  1  1  1  1  1  1  1  1  1  1  2  2  2  2  2  2  2  2
CENTRE ASSIGNMENTS    2  2  2  2  2  2  2  2  2  2  2  2  2  2  2  2  2  2  2  3
CENTRE ASSIGNMENTS    3  3  3  3  3  3  3  3  3  3  3  3  3  3  3  3  3  3  3  3
CENTRE ASSIGNMENTS    3  3  3  3  3  3
TYPE ASSIGNMENTS      1  1  1  1  1  1  1  1  1  1  1  1  1  1  1  1  2  2  2  3
TYPE ASSIGNMENTS      3  3  4  4  4  2  3  4  2  3  4  2  3  4  5  6  7  8  9 10
TYPE ASSIGNMENTS      5  6  7  8  9 10  5  6  7  8  9 10 11 12 13 17 14 15 18 19
TYPE ASSIGNMENTS     16 20 11 12 13 17 14 15 18 19 16 20  1  1  1  1  1  1  2  3
TYPE ASSIGNMENTS      4  2  3  4  2  3  4  5  6  7  8  9 10  5  6  7  8  9 10  1
TYPE ASSIGNMENTS      1  1  1  1  1  2  3  4  2  3  4  2  3  4  5  6  7  8  9 10
TYPE ASSIGNMENTS      5  6  7  8  9 10
EXPONENTS  0.1533000D+05 0.2299000D+04 0.5224000D+03 0.1473000D+03 0.4755000D+02
EXPONENTS  0.1676000D+02 0.6207000D+01 0.5224000D+03 0.1473000D+03 0.4755000D+02
EXPONENTS  0.1676000D+02 0.6207000D+01 0.6882000D+00 0.1752000D+01 0.2384000D+00
EXPONENTS  0.7376000D-01 0.3446000D+02 0.7749000D+01 0.2280000D+01 0.3446000D+02
EXPONENTS  0.7749000D+01 0.2280000D+01 0.3446000D+02 0.7749000D+01 0.2280000D+01
EXPONENTS  0.7156000D+00 0.7156000D+00 0.7156000D+00 0.2140000D+00 0.2140000D+00
EXPONENTS  0.2140000D+00 0.5974000D-01 0.5974000D-01 0.5974000D-01 0.2314000D+01
EXPONENTS  0.2314000D+01 0.2314000D+01 0.2314000D+01 0.2314000D+01 0.2314000D+01
EXPONENTS  0.6450000D+00 0.6450000D+00 0.6450000D+00 0.6450000D+00 0.6450000D+00
EXPONENTS  0.6450000D+00 0.2140000D+00 0.2140000D+00 0.2140000D+00 0.2140000D+00
EXPONENTS  0.2140000D+00 0.2140000D+00 0.1428000D+01 0.1428000D+01 0.1428000D+01
EXPONENTS  0.1428000D+01 0.1428000D+01 0.1428000D+01 0.1428000D+01 0.1428000D+01
EXPONENTS  0.1428000D+01 0.1428000D+01 0.5000000D+00 0.5000000D+00 0.5000000D+00
EXPONENTS  0.5000000D+00 0.5000000D+00 0.5000000D+00 0.5000000D+00 0.5000000D+00
EXPONENTS  0.5000000D+00 0.5000000D+00 0.3387000D+02 0.5095000D+01 0.1159000D+01
EXPONENTS  0.3258000D+00 0.1027000D+00 0.2526000D-01 0.1407000D+01 0.1407000D+01
EXPONENTS  0.1407000D+01 0.3880000D+00 0.3880000D+00 0.3880000D+00 0.1020000D+00
EXPONENTS  0.1020000D+00 0.1020000D+00 0.1057000D+01 0.1057000D+01 0.1057000D+01
EXPONENTS  0.1057000D+01 0.1057000D+01 0.1057000D+01 0.2470000D+00 0.2470000D+00
EXPONENTS  0.2470000D+00 0.2470000D+00 0.2470000D+00 0.2470000D+00 0.3387000D+02
EXPONENTS  0.5095000D+01 0.1159000D+01 0.3258000D+00 0.1027000D+00 0.2526000D-01
EXPONENTS  0.1407000D+01 0.1407000D+01 0.1407000D+01 0.3880000D+00 0.3880000D+00
EXPONENTS  0.3880000D+00 0.1020000D+00 0.1020000D+00 0.1020000D+00 0.1057000D+01
EXPONENTS  0.1057000D+01 0.1057000D+01 0.1057000D+01 0.1057000D+01 0.1057000D+01
EXPONENTS  0.2470000D+00 0.2470000D+00 0.2470000D+00 0.2470000D+00 0.2470000D+00
EXPONENTS  0.2470000D+00
MO    1     MO 0.0        OCC NO =    2.0000000  ORB. ENERGY =    0.000000
 -0.13872073D-02 -0.25855262D-02 -0.43841231D-02 -0.66349041D-02 -0.82765199D-02
 -0.71024854D-02 -0.27198746D-02  0.21747385D-03  0.23333517D-02  0.86011736D-02
  0.25149327D-01  0.30306162D-01 -0.36506984D-01 -0.22619628D-01  0.41209032D-01
  0.81255470D-02  0.14921075D+00  0.14468424D+00  0.97603131D-01  0.22693254D+00
  0.22004822D+00  0.14844323D+00  0.15252174D+01  0.14789478D+01  0.99768947D+00
  0.33680737D-01  0.44436983D-01  0.33066748D+00  0.55013412D-02  0.30310715D-02
  0.39097082D-01  0.17475824D-03  0.30049698D-04  0.79209368D-03  0.45256993D-01
 -0.61091736D-02 -0.39147819D-01 -0.35075729D-03 -0.61517698D-02 -0.21527525D-01
  0.59918798D-02  0.56846056D-02 -0.11676485D-01 -0.10678573D-04 -0.15367197D-02
 -0.15559581D-02 -0.92003115D-03  0.15417038D-02 -0.62167263D-03  0.70742503D-05
 -0.97244573D-04  0.48867175D-03 -0.89822066D-03  0.11080670D-02  0.76143269D-03
  0.19686579D-02 -0.17111008D-02 -0.18560554D-01  0.72600404D-03 -0.16131001D-02
  0.16276256D-01 -0.27927558D-04 -0.23991093D-04  0.62957659D-04  0.68926357D-03
  0.29248562D-04  0.50921734D-04  0.41664361D-05  0.42724715D-04 -0.23979471D-03
 -0.20719572D-02 -0.35814535D-04 -0.36004483D-01 -0.64935568D-01 -0.95747457D-01
 -0.68767976D-01 -0.90806082D-02 -0.78284300D-04  0.22159105D-02 -0.35637672D-01
 -0.60423674D-02  0.12053632D-02 -0.14193755D-01 -0.60725187D-03  0.18260304D-03
 -0.39279619D-04  0.11480413D-02  0.54642892D-02 -0.92202389D-02  0.37559496D-02
  0.11218669D-02  0.76587451D-03 -0.11841731D-01  0.77620132D-05 -0.14946083D-03
  0.14169882D-03  0.12060742D-03  0.70915770D-04  0.75409746D-03 -0.25290498D-01
 -0.45612454D-01 -0.67255537D-01 -0.47637818D-01 -0.72620521D-02 -0.11169964D-03
  0.20654032D-02  0.26098217D-01  0.88969737D-03  0.11263147D-02  0.11414797D-01
  0.14574688D-02  0.17423009D-03  0.21644505D-03  0.11054374D-02  0.30664348D-02
 -0.68317575D-02  0.37653226D-02 -0.10214548D-02  0.76171517D-03  0.57234610D-02
  0.11977410D-03 -0.26977741D-03  0.15000331D-03 -0.10887821D-03  0.68031699D-04
 -0.58617250D-03
MO    2     MO 0.0        OCC NO =    2.0000000  ORB. ENERGY =    0.000000
  0.21984055D-01  0.40974664D-01  0.69478301D-01  0.10514802D+00  0.13116387D+00
  0.11255811D+00  0.43103777D-01  0.19867332D-03  0.21316343D-02  0.78576055D-02
  0.22975178D-01  0.27686206D-01 -0.33350969D-01 -0.17889901D-01 -0.15464549D-01
 -0.16451481D-02  0.17676060D+01  0.17139832D+01  0.11562429D+01 -0.80086469D-01
 -0.77656936D-01 -0.52386910D-01 -0.17755684D+00 -0.17217041D+00 -0.11614514D+00
  0.39899452D+00 -0.16360231D-01 -0.38051392D-01  0.65170931D-01 -0.14159607D-02
 -0.51245931D-02  0.20702510D-02 -0.13434498D-04 -0.10301222D-03 -0.24353594D-02
 -0.21745595D-02  0.46099189D-02 -0.41552011D-02 -0.72876150D-01  0.75011033D-02
  0.41378381D-05 -0.12832161D-02  0.12790782D-02 -0.12650235D-03 -0.18204552D-01
  0.95212875D-03  0.10213873D-03 -0.17002609D-03  0.67887359D-04  0.83804197D-04
 -0.11519953D-02 -0.91247387D-04 -0.10640656D-01 -0.37205697D-03 -0.36848524D-03
  0.23321453D-01  0.76704387D-03  0.14391407D-02  0.86005135D-02  0.34912702D-03
 -0.33368494D-03 -0.33084022D-03 -0.28420739D-03 -0.12103338D-04 -0.37525967D-04
  0.34648933D-03  0.36787499D-04 -0.14833974D-04  0.50613285D-03 -0.47748579D-06
  0.12741187D-03 -0.42427229D-03  0.29077032D-02  0.52441624D-02  0.77325144D-02
  0.86948126D-02  0.17730993D-02  0.17039733D-04  0.26250499D-01  0.20497133D-02
 -0.60292263D-03  0.14279180D-01  0.17613461D-02  0.83139019D-04  0.21631834D-02
  0.52270695D-04 -0.12237657D-03 -0.54732774D-03  0.98626717D-03 -0.43893943D-03
  0.13290053D-01  0.90728339D-02  0.99360322D-03 -0.16078218D-04  0.31663849D-04
 -0.15585631D-04  0.14287602D-02  0.84009455D-03 -0.44736749D-04 -0.99790710D-03
 -0.17997665D-02 -0.26537547D-02  0.11607093D-02  0.94895981D-03  0.29124220D-04
  0.24467533D-01  0.40020417D-03 -0.34134079D-02  0.13342743D-01 -0.89118686D-03
 -0.96773514D-03  0.20639944D-02 -0.91620426D-04 -0.12892669D-03  0.22067507D-03
  0.48670019D-03 -0.70737526D-03 -0.12100533D-01  0.90235608D-02  0.11656998D-02
 -0.25942503D-04  0.58027549D-04 -0.32085047D-04 -0.12898117D-02  0.80592877D-03
  0.70874318D-04
MO    3     MO 0.0        OCC NO =    2.0000000  ORB. ENERGY =    0.000000
  0.19741004D+00  0.36793985D+00  0.62389372D+00  0.94419681D+00  0.11778111D+01
  0.10107371D+01  0.38705863D+00 -0.23802363D-03 -0.25538373D-02 -0.94139252D-02
 -0.27525765D-01 -0.33169885D-01  0.39956642D-01  0.47284061D-01  0.12509539D-01
  0.54942763D-03  0.82977879D-01  0.80460630D-01  0.54278266D-01  0.13046585D+01
  0.12650799D+01  0.85341542D+00 -0.11806271D+00 -0.11448111D+00 -0.77228281D-01
  0.18730260D-01  0.26613354D+00 -0.27306809D-01  0.30593615D-02  0.23030432D-01
 -0.32850998D-02  0.97185142D-04  0.19733914D-03 -0.61797596D-04 -0.65694422D-02
  0.12359004D-02  0.53335418D-02 -0.19506031D-03 -0.34210726D-02 -0.12053384D+00
 -0.14608244D-02  0.33239978D-03  0.11284246D-02 -0.59384820D-05 -0.85458814D-03
 -0.14054316D-01 -0.54566942D-04  0.21388780D-04  0.33178162D-04  0.39340750D-05
 -0.54078867D-04  0.13964925D-02 -0.49951123D-03  0.63032258D-02  0.75857539D-03
  0.10947942D-02 -0.12424970D-01  0.30291027D-02  0.40373951D-03 -0.64847073D-02
 -0.53048288D-02 -0.15530848D-04 -0.13341733D-04  0.12264856D-03 -0.94566153D-04
  0.16265475D-04 -0.61512386D-03  0.42789496D-04  0.23759724D-04  0.24717817D-03
  0.24090896D-03 -0.19916890D-04 -0.29745470D-01 -0.53647180D-01 -0.79102735D-01
 -0.60432459D-01 -0.76117029D-02  0.79368359D-04  0.12322943D-02 -0.18242119D-01
 -0.24022238D-01  0.67031686D-03 -0.75190955D-02 -0.10062669D-01  0.10154773D-03
  0.13132168D-03 -0.26268403D-03  0.68906665D-02 -0.45765808D-02 -0.23140857D-02
  0.62388360D-03  0.42591195D-03 -0.20399289D-01 -0.22510434D-04  0.16663242D-03
 -0.14412199D-03  0.67071223D-04  0.39437106D-04 -0.45593937D-03  0.38367841D-01
  0.69197982D-01  0.10203238D+00  0.67852191D-01  0.76382537D-02 -0.99780041D-04
  0.11485953D-02 -0.24107398D-01  0.27279133D-01  0.62635706D-03 -0.79723090D-02
  0.10210707D-01  0.96891434D-04  0.20968477D-03  0.10150568D-03 -0.67220380D-02
  0.39345846D-02  0.27874533D-02 -0.56804319D-03  0.42359889D-03 -0.19948673D-01
 -0.27052463D-04 -0.12134978D-03  0.14840224D-03 -0.60548469D-04  0.37833239D-04
 -0.50161495D-03
MO    4     MO 0.0        OCC NO =    2.0000000  ORB. ENERGY =    0.000000
  0.37625550D+00  0.70127839D+00  0.11891161D+01  0.17996007D+01  0.22448600D+01
  0.19264239D+01  0.73771801D+00  0.13877988D-02  0.14890171D-01  0.54887973D-01
  0.16048921D+00  0.19339731D+00 -0.23296755D+00 -0.98843172D-01 -0.74135915D-01
 -0.58651363D-02 -0.20596949D+00 -0.19972113D+00 -0.13473069D+00 -0.23198604D+00
 -0.22494842D+00 -0.15174888D+00 -0.30635475D+00 -0.29706105D+00 -0.20039563D+00
 -0.46492658D-01 -0.48825638D-01 -0.63599060D-01 -0.75940135D-02 -0.47706239D-02
 -0.11615897D-01 -0.24123507D-03 -0.49811920D-04 -0.23146175D-03  0.76158769D-02
 -0.16015349D-01  0.83994722D-02  0.48418295D-03  0.84918607D-02  0.22131151D-01
  0.32084605D-02 -0.50831632D-02  0.18747027D-02  0.14740629D-04  0.21212772D-02
  0.37255041D-02  0.14533706D-03 -0.24328249D-03  0.97945438D-04 -0.97652465D-05
  0.13423574D-03 -0.12419067D-03  0.12398976D-02 -0.10565406D-02 -0.15770000D-02
 -0.27175219D-02  0.26624755D-02 -0.12784364D-03 -0.10021710D-02  0.50714619D-03
  0.48588436D-02  0.38551009D-04  0.33117139D-04 -0.21157364D-04  0.63358902D-04
 -0.40374514D-04  0.18350447D-03 -0.20646408D-03 -0.58976903D-04 -0.12003238D-03
  0.16387376D-04  0.49438138D-04 -0.49579042D-02 -0.89417843D-02 -0.13184656D-01
  0.95570791D-02  0.52017652D-02  0.71470077D-04 -0.30588276D-02 -0.94184324D-02
 -0.10395744D-01 -0.16638751D-02  0.19800538D-02 -0.13311859D-02 -0.25206398D-03
  0.28918749D-03 -0.20617069D-03  0.93730868D-03  0.41954560D-04 -0.97926324D-03
 -0.15486174D-02 -0.10572079D-02 -0.42007056D-02 -0.90755048D-04  0.12988440D-03
 -0.39129355D-04 -0.16648565D-03 -0.97891641D-04  0.43414031D-04 -0.15928656D-01
 -0.28727986D-01 -0.42359399D-01 -0.11285766D-01  0.28852455D-02  0.11379842D-03
 -0.28510683D-02  0.14489043D-01 -0.18267169D-01 -0.15547571D-02 -0.45890360D-04
 -0.43465512D-02 -0.24050602D-03 -0.42873837D-03 -0.21509687D-03  0.27500465D-02
 -0.60958453D-03 -0.21404619D-02  0.14100092D-02 -0.10514664D-02  0.94480451D-02
 -0.98156653D-04  0.20667748D-03 -0.10852083D-03  0.15029473D-03 -0.93910489D-04
  0.85620781D-04
MO    5     MO 0.0        OCC NO =    2.0000000  ORB. ENERGY =    0.000000
  0.27969563D+00  0.52130667D+00  0.88394872D+00  0.13377624D+01  0.16687531D+01
  0.14320385D+01  0.54839465D+00 -0.97153296D-03 -0.10423911D-01 -0.38424499D-01
 -0.11235098D+00 -0.13538840D+00  0.16308967D+00  0.13341101D+00  0.60742358D-01
  0.55022588D-02  0.80317051D-01  0.77880522D-01  0.52537740D-01 -0.60185595D+00
 -0.58359782D+00 -0.39369164D+00  0.41048018D+00  0.39802770D+00  0.26850713D+00
  0.18129642D-01 -0.12266165D+00  0.88239284D-01  0.29612578D-02 -0.10496242D-01
  0.13753327D-01  0.94068734D-04 -0.91778250D-04  0.26582019D-03 -0.41624704D-02
  0.16859346D-01 -0.12696876D-01 -0.18880537D-03 -0.33113700D-02  0.56191399D-01
 -0.14854362D-02  0.43011760D-02 -0.28157399D-02 -0.57480544D-05 -0.82718430D-03
  0.60101150D-02 -0.10956126D-03  0.23179113D-03 -0.12222987D-03  0.38079222D-05
 -0.52344736D-04 -0.66091971D-03 -0.48349355D-03 -0.30918568D-02  0.18671491D-02
  0.10596877D-02  0.59622422D-02 -0.64842924D-03  0.39079291D-03  0.33133284D-02
 -0.49530180D-02 -0.15032825D-04 -0.12913907D-04 -0.31561373D-04 -0.19444828D-03
  0.15743894D-04  0.20187647D-03 -0.25495135D-03  0.22997828D-04 -0.10719235D-03
  0.83829617D-03 -0.19278221D-04  0.20912390D-01  0.37716356D-01  0.55612745D-01
  0.23344266D-01 -0.94884842D-03 -0.12828953D-03  0.11927786D-02  0.15790183D-01
  0.22653023D-01  0.64882201D-03  0.45126528D-03  0.62806924D-02  0.98291426D-04
 -0.47145713D-03  0.30311799D-03 -0.28211545D-02  0.25926437D-03  0.25618902D-02
  0.60387770D-03  0.41225436D-03  0.10434735D-01  0.12994595D-03 -0.25825931D-03
  0.12831336D-03  0.64920469D-04  0.38172487D-04  0.16599644D-03 -0.11541491D-01
 -0.20815554D-01 -0.30692522D-01 -0.36086440D-01 -0.78855523D-02 -0.38532533D-04
  0.11117637D-02  0.47703913D-02 -0.15592747D-02  0.60627185D-03  0.65257626D-02
 -0.31053850D-02  0.93784444D-04  0.29815163D-03  0.12727447D-03  0.34437832D-02
 -0.36475668D-02  0.20378356D-03 -0.54982791D-03  0.41001547D-03  0.85512074D-02
  0.12465620D-03 -0.12049183D-03 -0.41643695D-05 -0.58606879D-04  0.36620052D-04
  0.26698671D-03
END DATA
 TOTAL ENERGY =    -76.465231046816 THE VIRIAL(-V/T)=   2.00523111
