 55
GAUSSIAN              5 MOL ORBITALS    126 PRIMITIVES        3 NUCLEI   B3LYP   B3LYP   B3LYP
  O    1    (CENTRE  1)   0.00000000  0.00000000  0.00815606  CHARGE =  8.0
  H    2    (CENTRE  2)   0.00000000 -1.44255835 -1.19178791  CHARGE =  1.0
  H    3    (CENTRE  3)   0.00000000  1.44255835 -1.09730160  CHARGE =  1.0
CENTRE ASSIGNMENTS    1  1  1  1  1  1  1  1  1  1  1  1  1  1  1  1  1  1  1  1
CENTRE ASSIGNMENTS    1  1  1  1  1  1  1  1  1  1  1  1  1  1  1  1  1  1  1  1
CENTRE ASSIGNMENTS    1  1  1  1  1  1  1  1  1  1  1  1  1  1  1  1  1  1  1  1
CENTRE ASSIGNMENTS    1  1  1  1  1  1  1  1  1  1  1  1  2  2  2  2  2  2  2  2
CENTRE ASSIGNMENTS    2  2  2  2  2  2  2  2  2  2  2  2  2  2  2  2  2  2  2  3
CENTRE ASSIGNMENTS    3  3  3  3  3  3  3  3  3  3  3  3  3  3  3  3  3  3  3  3
CENTRE ASSIGNMENTS    3  3  3  3  3  3
TYPE ASSIGNMENTS      1  1  1  1  1  1  1  1  1  1  1  1  1  1  1  1  2  2  2  3
TYPE ASSIGNMENTS      3  3  4  4  4  2  3  4  2  3  4  2  3  4  5  6  7  8  9 10
TYPE ASSIGNMENTS      5  6  7  8  9 10  5  6  7  8  9 10 11 12 13 17 14 15 18 19
TYPE ASSIGNMENTS     16 20 11 12 13 17 14 15 18 19 16 20  1  1  1  1  1  1  2  3
TYPE ASSIGNMENTS      4  2  3  4  2  3  4  5  6  7  8  9 10  5  6  7  8  9 10  1
TYPE ASSIGNMENTS      1  1  1  1  1  2  3  4  2  3  4  2  3  4  5  6  7  8  9 10
TYPE ASSIGNMENTS      5  6  7  8  9 10
EXPONENTS  0.1533000D+05 0.2299000D+04 0.5224000D+03 0.1473000D+03 0.4755000D+02
EXPONENTS  0.1676000D+02 0.6207000D+01 0.5224000D+03 0.1473000D+03 0.4755000D+02
EXPONENTS  0.1676000D+02 0.6207000D+01 0.6882000D+00 0.1752000D+01 0.2384000D+00
EXPONENTS  0.7376000D-01 0.3446000D+02 0.7749000D+01 0.2280000D+01 0.3446000D+02
EXPONENTS  0.7749000D+01 0.2280000D+01 0.3446000D+02 0.7749000D+01 0.2280000D+01
EXPONENTS  0.7156000D+00 0.7156000D+00 0.7156000D+00 0.2140000D+00 0.2140000D+00
EXPONENTS  0.2140000D+00 0.5974000D-01 0.5974000D-01 0.5974000D-01 0.2314000D+01
EXPONENTS  0.2314000D+01 0.2314000D+01 0.2314000D+01 0.2314000D+01 0.2314000D+01
EXPONENTS  0.6450000D+00 0.6450000D+00 0.6450000D+00 0.6450000D+00 0.6450000D+00
EXPONENTS  0.6450000D+00 0.2140000D+00 0.2140000D+00 0.2140000D+00 0.2140000D+00
EXPONENTS  0.2140000D+00 0.2140000D+00 0.1428000D+01 0.1428000D+01 0.1428000D+01
EXPONENTS  0.1428000D+01 0.1428000D+01 0.1428000D+01 0.1428000D+01 0.1428000D+01
EXPONENTS  0.1428000D+01 0.1428000D+01 0.5000000D+00 0.5000000D+00 0.5000000D+00
EXPONENTS  0.5000000D+00 0.5000000D+00 0.5000000D+00 0.5000000D+00 0.5000000D+00
EXPONENTS  0.5000000D+00 0.5000000D+00 0.3387000D+02 0.5095000D+01 0.1159000D+01
EXPONENTS  0.3258000D+00 0.1027000D+00 0.2526000D-01 0.1407000D+01 0.1407000D+01
EXPONENTS  0.1407000D+01 0.3880000D+00 0.3880000D+00 0.3880000D+00 0.1020000D+00
EXPONENTS  0.1020000D+00 0.1020000D+00 0.1057000D+01 0.1057000D+01 0.1057000D+01
EXPONENTS  0.1057000D+01 0.1057000D+01 0.1057000D+01 0.2470000D+00 0.2470000D+00
EXPONENTS  0.2470000D+00 0.2470000D+00 0.2470000D+00 0.2470000D+00 0.3387000D+02
EXPONENTS  0.5095000D+01 0.1159000D+01 0.3258000D+00 0.1027000D+00 0.2526000D-01
EXPONENTS  0.1407000D+01 0.1407000D+01 0.1407000D+01 0.3880000D+00 0.3880000D+00
EXPONENTS  0.3880000D+00 0.1020000D+00 0.1020000D+00 0.1020000D+00 0.1057000D+01
EXPONENTS  0.1057000D+01 0.1057000D+01 0.1057000D+01 0.1057000D+01 0.1057000D+01
EXPONENTS  0.2470000D+00 0.2470000D+00 0.2470000D+00 0.2470000D+00 0.2470000D+00
EXPONENTS  0.2470000D+00
MO    1     MO 0.0        OCC NO =    2.0000000  ORB. ENERGY =    0.000000
  0.28715897D-01  0.53521711D-01  0.90753583D-01  0.13734590D+00  0.17132818D+00
  0.14702507D+00  0.56302790D-01  0.51937817D-03  0.55725869D-02  0.20541604D-01
  0.60062447D-01  0.72378169D-01 -0.87187174D-01 -0.49361350D-01 -0.10321735D-01
  0.13660488D-02 -0.11583949D+00 -0.11232534D+00 -0.75774013D-01  0.12565412D+01
  0.12184223D+01  0.82194050D+00  0.55985896D+00  0.54287487D+00  0.36622018D+00
 -0.26165963D-01  0.26424713D+00  0.12476597D+00 -0.43291102D-02  0.27101405D-01
  0.14629885D-01 -0.13988000D-03  0.29297918D-03  0.27376453D-03  0.20851471D-01
 -0.28542661D-02 -0.17997204D-01 -0.26111114D-03  0.46911864D-02 -0.11760837D+00
  0.42805083D-02  0.75673801D-03 -0.50372463D-02 -0.17040075D-04  0.12446546D-02
 -0.17738340D-01 -0.10789291D-03  0.35898514D-03 -0.25109223D-03  0.49515404D-05
  0.86490538D-04  0.30263248D-03  0.68907203D-03  0.55377216D-02 -0.13259729D-03
 -0.13878604D-02 -0.13845950D-01 -0.89979915D-02 -0.67935570D-03 -0.27672150D-02
  0.93957834D-02  0.16321221D-05  0.29992840D-04  0.64698655D-04  0.26831240D-03
 -0.46200524D-04 -0.98327434D-03 -0.39504849D-03 -0.43777996D-04  0.78917837D-03
 -0.40988872D-03 -0.28016382D-04 -0.47391299D-01 -0.85472159D-01 -0.12602865D+00
 -0.80688415D-01 -0.97829378D-02  0.10040950D-03 -0.14994490D-02 -0.28952620D-01
 -0.28071137D-01 -0.81766826D-03 -0.10134656D-01 -0.10337940D-01 -0.12833416D-03
  0.24724026D-03  0.16567281D-03  0.74907506D-02 -0.44267226D-02 -0.30640280D-02
 -0.73621176D-03 -0.58624542D-03 -0.21262934D-01  0.19757534D-03  0.13238909D-04
 -0.21081425D-03 -0.74583204D-04 -0.48315369D-04 -0.60118606D-03  0.16295478D-01
  0.29389565D-01  0.43334897D-01  0.35338123D-01  0.48205453D-02 -0.12358173D-03
 -0.16121358D-02 -0.13817136D-02  0.18441575D-01 -0.87634978D-03 -0.12609338D-02
  0.87648803D-02 -0.13495240D-03  0.29877015D-03  0.51875121D-03 -0.38230846D-02
 -0.34285161D-03  0.41659362D-02  0.80559446D-03 -0.59345143D-03 -0.12494617D-01
 -0.36404325D-04 -0.21282642D-03  0.24923074D-03  0.83380016D-04 -0.51772869D-04
 -0.65354096D-03
MO    2     MO 0.0        OCC NO =    2.0000000  ORB. ENERGY =    0.000000
  0.23259628D-01  0.43352123D-01  0.73509616D-01  0.11124899D+00  0.13877434D+00
  0.11908903D+00  0.45604773D-01  0.19612089D-03  0.21042485D-02  0.77566562D-02
  0.22680008D-01  0.27330512D-01 -0.32922498D-01 -0.17087730D-01  0.36141022D-01
  0.74625582D-02 -0.88728827D-01 -0.86037116D-01 -0.58040130D-01 -0.69436285D+00
 -0.67329840D+00 -0.45420312D+00  0.13457333D+01  0.13049087D+01  0.88028367D+00
 -0.20042173D-01 -0.14364094D+00  0.29223354D+00 -0.33159405D-02 -0.13686964D-01
  0.34553248D-01 -0.10714297D-03 -0.15178782D-03  0.65900055D-03  0.40491949D-01
 -0.48913790D-02 -0.35600570D-01 -0.20000161D-03  0.35932777D-02  0.65964982D-01
  0.58431565D-02  0.48886222D-02 -0.10731779D-01 -0.13052076D-04  0.95336002D-03
  0.86459845D-02 -0.68115191D-03  0.12146297D-02 -0.53347779D-03  0.37926994D-05
  0.66248597D-04 -0.49084364D-03  0.52780404D-03 -0.30673169D-02  0.15234730D-02
 -0.10630504D-02  0.69920674D-02 -0.16892368D-01 -0.52036168D-03  0.22098833D-02
  0.12321949D-01  0.12501460D-05  0.22973421D-04 -0.82968587D-04  0.66041380D-03
 -0.35387916D-04  0.35833076D-03 -0.31259535D-03 -0.33532348D-04 -0.10942500D-03
 -0.16686461D-02 -0.21459526D-04 -0.10837926D-01 -0.19546645D-01 -0.28821517D-01
 -0.20991174D-01 -0.43295403D-02 -0.15642021D-03 -0.11485233D-02 -0.16480464D-01
  0.80211820D-02 -0.62630406D-03 -0.82692382D-02  0.38235203D-02 -0.98299286D-04
 -0.41660514D-03  0.88665667D-03  0.72885440D-03 -0.49214855D-02  0.41926311D-02
 -0.56391135D-03 -0.44904261D-03  0.27986470D-03  0.12240051D-03 -0.31447635D-03
  0.19207584D-03 -0.57128014D-04 -0.37007810D-04  0.45561053D-03 -0.45116969D-01
 -0.81370312D-01 -0.11998048D+00 -0.84468746D-01 -0.11508014D-01 -0.31859351D-04
 -0.12348373D-02  0.36230721D-01 -0.16237429D-01 -0.67125196D-03  0.15018144D-01
 -0.55417017D-02 -0.10336862D-03  0.13021531D-04  0.79693028D-03  0.72596906D-02
 -0.83689713D-02  0.11092807D-02  0.61705597D-03 -0.45456215D-03  0.18441707D-01
  0.12708208D-03 -0.13643628D-03  0.93541915D-05  0.63866050D-04 -0.39656129D-04
 -0.12394032D-03
MO    3     MO 0.0        OCC NO =    2.0000000  ORB. ENERGY =    0.000000
 -0.22710792D-01 -0.42329182D-01 -0.71775076D-01 -0.10862395D+00 -0.13549981D+00
 -0.11627900D+00 -0.44528678D-01 -0.41658579D-03 -0.44696922D-02 -0.16476127D-01
 -0.48175229D-01 -0.58053493D-01  0.69931584D-01  0.40485200D-01  0.28967623D-01
  0.28955570D-02  0.17170049D+01  0.16649172D+01  0.11231433D+01  0.12959197D+00
  0.12566062D+00  0.84769912D-01  0.27774390D+00  0.26931816D+00  0.18168044D+00
  0.38783911D+00  0.27157426D-01  0.59422217D-01  0.64167264D-01  0.27390488D-02
  0.82924764D-02  0.20733398D-02  0.29093986D-04  0.15419755D-03  0.24565739D-02
  0.50355101D-02 -0.74920840D-02  0.38702613D-02 -0.69534058D-01 -0.12179218D-01
 -0.31103816D-03  0.22852604D-02 -0.19742223D-02  0.25257268D-03 -0.18448613D-01
 -0.15915135D-02 -0.12419817D-03  0.22376599D-03 -0.99567816D-04 -0.73393097D-04
 -0.12819866D-02  0.38802330D-04 -0.10213616D-01  0.62587264D-03  0.81235371D-03
  0.20571249D-01 -0.14291329D-02 -0.19792050D-02  0.10069597D-01 -0.44848503D-03
 -0.45785611D-03 -0.24191763D-04 -0.44456214D-03  0.61431073D-05  0.61045995D-04
  0.68479690D-03 -0.83088546D-04 -0.17378242D-04  0.64888951D-03  0.64659224D-04
 -0.16575974D-03  0.41526653D-03 -0.41290789D-02 -0.74469638D-02 -0.10980544D-01
 -0.13241829D-01 -0.32799908D-02 -0.31545192D-04  0.22225247D-01 -0.17144767D-02
  0.12811175D-02  0.12119704D-01 -0.26002328D-02 -0.47015751D-03  0.19022043D-02
 -0.13997899D-03  0.12588952D-03  0.79532476D-03 -0.11768405D-02  0.38151570D-03
  0.10912334D-01  0.86894912D-02 -0.17221394D-02  0.67350509D-04 -0.72707434D-04
  0.53569246D-05  0.11054928D-02  0.71614371D-03 -0.65821234D-04  0.29111709D-02
  0.52504166D-02  0.77417362D-02 -0.85752926D-03 -0.16803789D-02 -0.54713038D-04
  0.23895522D-01 -0.18696317D-02  0.65119386D-02  0.12989498D-01  0.13362666D-02
  0.16754655D-02  0.20003017D-02  0.18008837D-03  0.17831690D-03 -0.46574725D-03
 -0.68248776D-03  0.11482350D-02 -0.11940743D-01  0.87963007D-02 -0.21875036D-02
  0.35658656D-04 -0.87937429D-04  0.52278773D-04 -0.12358816D-02  0.76739173D-03
 -0.88471310D-04
MO    4     MO 0.0        OCC NO =    2.0000000  ORB. ENERGY =    0.000000
  0.38260033D+00  0.71310410D+00  0.12091682D+01  0.18299475D+01  0.22827153D+01
  0.19589093D+01  0.75015820D+00  0.12988554D-02  0.13935866D-01  0.51370227D-01
  0.15020353D+00  0.18100256D+00 -0.21803676D+00 -0.89040629D-01 -0.76480673D-01
 -0.66776986D-02  0.38556978D+00  0.37387299D+00  0.25221251D+00 -0.20803242D+00
 -0.20172147D+00 -0.13608011D+00 -0.48550262D+00 -0.47077423D+00 -0.31758152D+00
  0.87092960D-01 -0.42765006D-01 -0.10157902D+00  0.14409369D-01 -0.40112908D-02
 -0.15523031D-01  0.46558817D-03 -0.38865017D-04 -0.28886115D-03  0.10692134D-02
 -0.13734297D-01  0.12665084D-01  0.86910397D-03 -0.15614534D-01  0.19312473D-01
  0.25612207D-02 -0.56566661D-02  0.30954454D-02  0.56717598D-04 -0.41428116D-02
  0.18759527D-02  0.26061714D-03 -0.41774915D-03  0.15713200D-03 -0.16481118D-04
 -0.28788228D-03 -0.14490891D-03 -0.22935645D-02 -0.10464028D-02 -0.18085801D-02
  0.46194696D-02  0.19720769D-02  0.22076227D-02  0.22612238D-02  0.11671315D-02
  0.32181175D-02 -0.54324904D-05 -0.99830655D-04 -0.23204733D-04 -0.10780229D-03
  0.15377765D-03  0.94740863D-04 -0.24935656D-03  0.14571431D-03 -0.25126664D-04
  0.57276343D-03  0.93252047D-04  0.93410911D-03  0.16847043D-02  0.24840954D-02
  0.18353363D-01  0.65779065D-02  0.88725084D-04  0.49908905D-02 -0.29939057D-02
 -0.77501347D-02  0.27215948D-02  0.40174287D-02 -0.23145639D-03  0.42715806D-03
  0.37019923D-03 -0.21087856D-03 -0.25695972D-03  0.14109307D-02 -0.11539710D-02
  0.24504682D-02  0.19513079D-02 -0.49070881D-03 -0.13113541D-03  0.16067746D-03
 -0.29542057D-04  0.24824892D-03  0.16081688D-03  0.11625154D-03 -0.10782248D-01
 -0.19446228D-01 -0.28673451D-01 -0.24889934D-02  0.38248873D-02  0.11942199D-03
  0.53659666D-02  0.99937490D-02 -0.16713064D-01  0.29169152D-02 -0.14895024D-02
 -0.39656087D-02  0.44918677D-03 -0.39219540D-03 -0.32018559D-03  0.21403512D-02
  0.11932985D-03 -0.22596810D-02 -0.26814074D-02  0.19752929D-02  0.78770359D-02
 -0.78042191D-04  0.17037199D-03 -0.92329795D-04 -0.27752896D-03  0.17232511D-03
  0.13836536D-03
MO    5     MO 0.0        OCC NO =    2.0000000  ORB. ENERGY =    0.000000
  0.33319455D+00  0.62101985D+00  0.10530264D+01  0.15936435D+01  0.19879447D+01
  0.17059523D+01  0.65328910D+00 -0.94351026D-03 -0.10123246D-01 -0.37316190D-01
 -0.10911035D+00 -0.13148328D+00  0.15838554D+00  0.13703298D+00  0.58920675D-01
  0.50934338D-02 -0.30953192D+00 -0.30014184D+00 -0.20247391D+00  0.18851670D+00
  0.18279779D+00  0.12331431D+00  0.34062202D+00  0.33028878D+00  0.22281086D+00
 -0.69917437D-01  0.39657877D-01  0.72626027D-01 -0.11567711D-01  0.39780805D-02
  0.11282918D-01 -0.37376996D-03  0.46840842D-04  0.20416868D-03 -0.44519516D-02
  0.13294619D-01 -0.88426673D-02 -0.69770877D-03  0.12535206D-01 -0.18398013D-01
 -0.18118748D-02  0.39457709D-02 -0.21338961D-02 -0.45532372D-04  0.33258115D-02
 -0.23314996D-02 -0.12866753D-03  0.23835516D-03 -0.10968763D-03  0.13230892D-04
  0.23110928D-03  0.62179310D-04  0.18412527D-02  0.97514225D-03  0.18662551D-02
 -0.37084682D-02 -0.22936084D-02 -0.19220358D-04 -0.18152900D-02 -0.63181832D-03
 -0.55795450D-02  0.43611540D-05  0.80143143D-04  0.47418297D-05 -0.85380360D-04
 -0.12345130D-03 -0.77622025D-04 -0.16956068D-03 -0.11697812D-03  0.63396536D-04
  0.42570176D-03 -0.74861897D-04 -0.89833680D-03 -0.16201874D-02 -0.23889654D-02
 -0.14377694D-01 -0.50983844D-02 -0.57202315D-04 -0.40066416D-02  0.23197111D-02
  0.56585554D-02 -0.21848716D-02 -0.32562072D-02 -0.12347698D-03 -0.34291861D-03
 -0.28844292D-03  0.11947417D-03  0.10793893D-02 -0.17030930D-02  0.62370373D-03
 -0.19672137D-02 -0.15664922D-02 -0.22869010D-02  0.10122324D-03 -0.11797529D-03
  0.16752047D-04 -0.19929198D-03 -0.12910233D-03 -0.12592239D-03  0.95521710D-02
  0.17227734D-01  0.25402283D-01  0.31311790D-02 -0.30619615D-02 -0.99358277D-04
 -0.43077493D-02 -0.77908978D-02  0.13056629D-01 -0.23416731D-02  0.17238702D-02
  0.26625783D-02 -0.36060306D-03  0.39488384D-03  0.16771950D-03 -0.56768050D-03
 -0.11098696D-02  0.16775501D-02  0.21526095D-02 -0.15857472D-02 -0.29326487D-02
  0.77783873D-04 -0.15681476D-03  0.79030883D-04  0.22279773D-03 -0.13834103D-03
 -0.38294081D-04
END DATA
 TOTAL ENERGY =    -76.465283522038 THE VIRIAL(-V/T)=   2.00662527
