 60
GAUSSIAN              5 MOL ORBITALS    126 PRIMITIVES        3 NUCLEI   B3LYP   B3LYP   B3LYP
  O    1    (CENTRE  1)  -0.09448631  0.00000000  0.00815606  CHARGE =  8.0
  H    2    (CENTRE  2)   0.00000000 -1.44255835 -1.09730160  CHARGE =  1.0
  H    3    (CENTRE  3)   0.09448631  1.44255835 -1.09730160  CHARGE =  1.0
CENTRE ASSIGNMENTS    1  1  1  1  1  1  1  1  1  1  1  1  1  1  1  1  1  1  1  1
CENTRE ASSIGNMENTS    1  1  1  1  1  1  1  1  1  1  1  1  1  1  1  1  1  1  1  1
CENTRE ASSIGNMENTS    1  1  1  1  1  1  1  1  1  1  1  1  1  1  1  1  1  1  1  1
CENTRE ASSIGNMENTS    1  1  1  1  1  1  1  1  1  1  1  1  2  2  2  2  2  2  2  2
CENTRE ASSIGNMENTS    2  2  2  2  2  2  2  2  2  2  2  2  2  2  2  2  2  2  2  3
CENTRE ASSIGNMENTS    3  3  3  3  3  3  3  3  3  3  3  3  3  3  3  3  3  3  3  3
CENTRE ASSIGNMENTS    3  3  3  3  3  3
TYPE ASSIGNMENTS      1  1  1  1  1  1  1  1  1  1  1  1  1  1  1  1  2  2  2  3
TYPE ASSIGNMENTS      3  3  4  4  4  2  3  4  2  3  4  2  3  4  5  6  7  8  9 10
TYPE ASSIGNMENTS      5  6  7  8  9 10  5  6  7  8  9 10 11 12 13 17 14 15 18 19
TYPE ASSIGNMENTS     16 20 11 12 13 17 14 15 18 19 16 20  1  1  1  1  1  1  2  3
TYPE ASSIGNMENTS      4  2  3  4  2  3  4  5  6  7  8  9 10  5  6  7  8  9 10  1
TYPE ASSIGNMENTS      1  1  1  1  1  2  3  4  2  3  4  2  3  4  5  6  7  8  9 10
TYPE ASSIGNMENTS      5  6  7  8  9 10
EXPONENTS  0.1533000D+05 0.2299000D+04 0.5224000D+03 0.1473000D+03 0.4755000D+02
EXPONENTS  0.1676000D+02 0.6207000D+01 0.5224000D+03 0.1473000D+03 0.4755000D+02
EXPONENTS  0.1676000D+02 0.6207000D+01 0.6882000D+00 0.1752000D+01 0.2384000D+00
EXPONENTS  0.7376000D-01 0.3446000D+02 0.7749000D+01 0.2280000D+01 0.3446000D+02
EXPONENTS  0.7749000D+01 0.2280000D+01 0.3446000D+02 0.7749000D+01 0.2280000D+01
EXPONENTS  0.7156000D+00 0.7156000D+00 0.7156000D+00 0.2140000D+00 0.2140000D+00
EXPONENTS  0.2140000D+00 0.5974000D-01 0.5974000D-01 0.5974000D-01 0.2314000D+01
EXPONENTS  0.2314000D+01 0.2314000D+01 0.2314000D+01 0.2314000D+01 0.2314000D+01
EXPONENTS  0.6450000D+00 0.6450000D+00 0.6450000D+00 0.6450000D+00 0.6450000D+00
EXPONENTS  0.6450000D+00 0.2140000D+00 0.2140000D+00 0.2140000D+00 0.2140000D+00
EXPONENTS  0.2140000D+00 0.2140000D+00 0.1428000D+01 0.1428000D+01 0.1428000D+01
EXPONENTS  0.1428000D+01 0.1428000D+01 0.1428000D+01 0.1428000D+01 0.1428000D+01
EXPONENTS  0.1428000D+01 0.1428000D+01 0.5000000D+00 0.5000000D+00 0.5000000D+00
EXPONENTS  0.5000000D+00 0.5000000D+00 0.5000000D+00 0.5000000D+00 0.5000000D+00
EXPONENTS  0.5000000D+00 0.5000000D+00 0.3387000D+02 0.5095000D+01 0.1159000D+01
EXPONENTS  0.3258000D+00 0.1027000D+00 0.2526000D-01 0.1407000D+01 0.1407000D+01
EXPONENTS  0.1407000D+01 0.3880000D+00 0.3880000D+00 0.3880000D+00 0.1020000D+00
EXPONENTS  0.1020000D+00 0.1020000D+00 0.1057000D+01 0.1057000D+01 0.1057000D+01
EXPONENTS  0.1057000D+01 0.1057000D+01 0.1057000D+01 0.2470000D+00 0.2470000D+00
EXPONENTS  0.2470000D+00 0.2470000D+00 0.2470000D+00 0.2470000D+00 0.3387000D+02
EXPONENTS  0.5095000D+01 0.1159000D+01 0.3258000D+00 0.1027000D+00 0.2526000D-01
EXPONENTS  0.1407000D+01 0.1407000D+01 0.1407000D+01 0.3880000D+00 0.3880000D+00
EXPONENTS  0.3880000D+00 0.1020000D+00 0.1020000D+00 0.1020000D+00 0.1057000D+01
EXPONENTS  0.1057000D+01 0.1057000D+01 0.1057000D+01 0.1057000D+01 0.1057000D+01
EXPONENTS  0.2470000D+00 0.2470000D+00 0.2470000D+00 0.2470000D+00 0.2470000D+00
EXPONENTS  0.2470000D+00
MO    1     MO 0.0        OCC NO =    2.0000000  ORB. ENERGY =    0.000000
  0.22037077D+00  0.41073488D+00  0.69645871D+00  0.10540162D+01  0.13148021D+01
  0.11282958D+01  0.43207736D+00 -0.58342413D-03 -0.62597580D-02 -0.23074647D-01
 -0.67468914D-01 -0.81303321D-01  0.97938467D-01  0.85904753D-01 -0.46012702D-02
 -0.41087287D-02 -0.38561236D+00 -0.37391428D+00 -0.25224036D+00 -0.35543369D-02
 -0.34465112D-02 -0.23249961D-02 -0.11021646D+01 -0.10687289D+01 -0.72095822D+00
 -0.88119769D-01 -0.24727310D-03 -0.24076430D+00 -0.15961925D-01  0.32704887D-03
 -0.28209097D-01 -0.55310364D-03  0.16556734D-04 -0.58611372D-03 -0.39475296D-01
  0.97464191D-02  0.29728877D-01  0.30497655D-02  0.40711553D-02  0.17502037D-02
 -0.63333819D-02 -0.26281716D-02  0.89615535D-02  0.21961069D-03  0.17331456D-02
  0.61546455D-05  0.49861417D-03 -0.97340491D-03  0.47479074D-03 -0.94527706D-04
  0.38676770D-03 -0.63556172D-04  0.11045119D-02  0.10808686D-03 -0.17283010D-03
 -0.45472705D-02 -0.28830625D-03  0.16160184D-01  0.12337347D-02 -0.35954317D-04
 -0.15641694D-01 -0.20823512D-02  0.99143159D-04  0.78505904D-06 -0.62107815D-03
 -0.39361938D-03 -0.43817486D-04  0.14308105D-03  0.96189904D-04  0.41462309D-04
  0.17201534D-02  0.10629674D-03  0.26801280D-01  0.48337212D-01  0.71273191D-01
  0.43940319D-01  0.50042380D-02  0.41756528D-04 -0.72596190D-02  0.25896573D-01
  0.63413293D-02 -0.37312675D-02  0.90054959D-02  0.43836968D-03 -0.50933788D-03
  0.16945130D-04 -0.80271180D-03 -0.29487901D-02  0.52045386D-02 -0.22557485D-02
 -0.39734699D-02 -0.26911122D-02  0.69562412D-02 -0.33716257D-04  0.13988107D-03
 -0.10616481D-03 -0.31694112D-03 -0.23471329D-03 -0.38951669D-03  0.25802155D-01
  0.46535249D-01  0.68616198D-01  0.42095299D-01  0.48624482D-02  0.45871384D-04
 -0.87409297D-02 -0.24591971D-01  0.55142068D-02 -0.42393519D-02 -0.85362775D-02
  0.18994701D-03 -0.50671527D-03  0.18189492D-05 -0.79731107D-03 -0.24652401D-02
  0.47914953D-02 -0.23262552D-02  0.48809073D-02 -0.30164319D-02 -0.61203389D-02
 -0.22555182D-04  0.12602830D-03 -0.10347311D-03  0.33657876D-03 -0.20758413D-03
  0.39050506D-03
MO    2     MO 0.0        OCC NO =    2.0000000  ORB. ENERGY =    0.000000
 -0.77590159D-01 -0.14461530D+00 -0.24521556D+00 -0.37110768D+00 -0.46292757D+00
 -0.39726073D+00 -0.15212975D+00 -0.17553634D-03 -0.18833897D-02 -0.69425291D-02
 -0.20299548D-01 -0.24461942D-01  0.29467002D-01  0.87960035D-02 -0.11336452D-01
 -0.28975833D-02  0.15645856D+01  0.15171217D+01  0.10234414D+01 -0.52611678D+00
 -0.51015630D+00 -0.34414843D+00 -0.38495809D+00 -0.37327985D+00 -0.25181238D+00
  0.35306086D+00 -0.10990159D+00 -0.82292033D-01  0.57583777D-01 -0.11204627D-01
 -0.75355183D-02  0.18313113D-02 -0.15359114D-03 -0.56247056D-04 -0.98456214D-02
  0.25426029D-02  0.73030186D-02 -0.50586243D-02 -0.67097354D-01  0.46485287D-01
 -0.63461851D-03 -0.18636281D-02  0.24982466D-02 -0.77987519D-03 -0.17244683D-01
  0.63599324D-02  0.43281690D-03 -0.52813912D-03  0.95322218D-04 -0.88714787D-05
 -0.10333019D-02 -0.28613888D-03 -0.94663316D-02 -0.28232647D-02  0.69796195D-03
  0.18920369D-01  0.69915981D-02  0.14859947D-02  0.94786259D-02  0.14781960D-02
 -0.35798805D-02  0.53036824D-03 -0.32704596D-03 -0.56899505D-04 -0.19068433D-03
  0.39141516D-03  0.34037955D-03 -0.12429345D-03  0.58972271D-03 -0.16968103D-03
  0.69634643D-03  0.11822093D-03  0.25011059D-01  0.45108475D-01  0.66512421D-01
  0.45629886D-01  0.58809743D-02 -0.47611163D-05  0.20041643D-01  0.18508304D-01
  0.13918878D-01  0.11090956D-01  0.71648075D-02  0.54022378D-02  0.17923340D-02
 -0.85308698D-04 -0.96702302D-04 -0.48352543D-02  0.38891091D-02  0.94614519D-03
  0.95144854D-02  0.68877785D-02  0.12296750D-01 -0.11277916D-03  0.59723631D-05
  0.10680680D-03  0.10904596D-02  0.64663120D-03  0.14197567D-03  0.60003882D-03
  0.10821947D-02  0.15956955D-02  0.55312743D-03  0.46333625D-03  0.73250601D-04
  0.21336054D-01 -0.63196643D-02 -0.40199380D-02  0.11579629D-01 -0.29796869D-02
 -0.17825360D-02  0.17923344D-02 -0.21588163D-03 -0.21875821D-03 -0.95746512D-03
  0.22428936D-02 -0.12854285D-02 -0.10432578D-01  0.81758671D-02  0.89607565D-03
 -0.14677801D-03  0.17362614D-03 -0.26848133D-04 -0.11003523D-02  0.67872489D-03
  0.19320057D-03
MO    3     MO 0.0        OCC NO =    2.0000000  ORB. ENERGY =    0.000000
  0.16484828D+00  0.30725008D+00  0.52098569D+00  0.78845644D+00  0.98353726D+00
  0.84402129D+00  0.32321532D+00 -0.73775711D-04 -0.79156497D-03 -0.29178575D-02
 -0.85316442D-02 -0.10281046D-01  0.12384610D-01  0.27063551D-01  0.10303111D-01
  0.12881438D-02  0.74724325D+00  0.72457459D+00  0.48879374D+00  0.12101616D+01
  0.11734497D+01  0.79160225D+00  0.25360958D+00  0.24591599D+00  0.16589347D+00
  0.16821651D+00  0.25048053D+00  0.55734625D-01  0.27297667D-01  0.23495700D-01
  0.77475610D-02  0.86581773D-03  0.21722506D-03  0.19259977D-03  0.67236031D-02
  0.13119610D-02 -0.80355641D-02  0.14294583D-01 -0.31007704D-01 -0.11383129D+00
  0.13322870D-02  0.83765943D-03 -0.21699464D-02  0.19442216D-02 -0.76321204D-02
 -0.14983052D-01 -0.22050468D-04  0.14263838D-03 -0.12058791D-03 -0.83945157D-04
 -0.48406087D-03  0.80386422D-03 -0.44672721D-02  0.54193297D-02  0.91019606D-03
  0.10430961D-01 -0.11512279D-01 -0.38046130D-02  0.29708557D-02 -0.47457100D-02
  0.10740248D-02 -0.17124023D-02 -0.16567063D-03  0.92016214D-04  0.44330617D-04
  0.29057030D-03 -0.69632940D-03 -0.22190368D-03  0.20644159D-03  0.42028076D-03
  0.88911827D-04 -0.30473935D-03 -0.33674600D-01 -0.60733527D-01 -0.89551551D-01
 -0.64049053D-01 -0.82425411D-02  0.83535920D-04  0.12335557D-01 -0.19854979D-01
 -0.21350909D-01  0.64211488D-02 -0.80727520D-02 -0.86383932D-02  0.86103796D-03
  0.14748984D-03  0.36939565D-04  0.62430888D-02 -0.41737582D-02 -0.20693306D-02
  0.67870303D-02  0.53926249D-02 -0.18677922D-01  0.48694492D-04  0.70966676D-04
 -0.11966117D-03  0.58617914D-03  0.36749856D-03 -0.41576949D-03  0.29592919D-01
  0.53372048D-01  0.78697053D-01  0.52700824D-01  0.58631251D-02 -0.11825969D-03
  0.64520632D-02 -0.15538580D-01  0.24917256D-01  0.40890077D-02 -0.49894312D-02
  0.99605055D-02  0.81849070D-03  0.27333922D-03  0.35898293D-03 -0.57222936D-02
  0.20325941D-02  0.36896995D-02 -0.24092549D-02  0.86932171D-03 -0.16779681D-01
 -0.90576074D-04 -0.14089641D-03  0.23147249D-03 -0.45399430D-03  0.23507149D-03
 -0.61265808D-03
MO    4     MO 0.0        OCC NO =    2.0000000  ORB. ENERGY =    0.000000
  0.41967721D+00  0.78220931D+00  0.13263458D+01  0.20072834D+01  0.25039278D+01
  0.21487425D+01  0.82285424D+00  0.67181507D-03  0.72081348D-02  0.26570542D-01
  0.77690706D-01  0.93621079D-01 -0.11277651D+00 -0.19590574D-01 -0.16918543D-01
  0.43199809D-03  0.20566326D+00  0.19942418D+00  0.13453037D+00 -0.59411105D+00
 -0.57608787D+00 -0.38862548D+00  0.42348056D+00  0.41063370D+00  0.27701107D+00
  0.46939304D-01 -0.12357183D+00  0.94534289D-01  0.86999613D-02 -0.11999481D-01
  0.10117899D-01  0.30191303D-03 -0.12895933D-03  0.21352918D-03  0.17918207D-01
 -0.63234260D-02 -0.11594781D-01 -0.86250066D-02 -0.21544175D-02  0.54624295D-01
  0.39562323D-02 -0.33337302D-03 -0.36228592D-02 -0.12220743D-02 -0.80644406D-03
  0.74193954D-02 -0.14038118D-03  0.33371268D-03 -0.19333149D-03  0.77675402D-04
 -0.20057859D-03 -0.33785014D-03 -0.64417544D-03 -0.28226948D-02  0.87685605D-04
  0.19873616D-02  0.62877621D-02 -0.65864211D-02 -0.54835274D-04  0.21803223D-02
  0.63233643D-02  0.18753242D-02 -0.16264427D-05 -0.46632819D-04  0.16780606D-03
  0.80159357D-04  0.36618382D-03 -0.37368016D-03 -0.75280029D-04 -0.22628536D-03
 -0.12973804D-03  0.16068432D-03  0.42053418D-03  0.75845070D-03  0.11183351D-02
  0.74470121D-02  0.19786111D-02 -0.44622329D-04  0.30584264D-02 -0.68602873D-02
  0.45709702D-02  0.16371887D-02 -0.13237399D-02  0.33148626D-02  0.27568431D-03
 -0.76802802D-04  0.36540587D-03 -0.24599301D-03 -0.17810922D-02  0.20270852D-02
  0.16355543D-02  0.91131507D-03  0.14284210D-02 -0.21968931D-04 -0.97890864D-04
  0.11985980D-03  0.14751331D-03  0.10325612D-03  0.37621292D-03 -0.29577077D-01
 -0.53343477D-01 -0.78654925D-01 -0.47783782D-01 -0.47060865D-02  0.52368829D-04
  0.67902321D-02  0.22809157D-01 -0.17231240D-01  0.30213282D-02  0.71150322D-02
 -0.54680851D-02  0.29009488D-03 -0.17304314D-03  0.21236005D-03  0.50243584D-02
 -0.43228108D-02 -0.70154756D-03 -0.44560640D-02  0.34702548D-02  0.14924528D-01
  0.20493109D-04  0.31690096D-04 -0.52183205D-04 -0.21265078D-03  0.15074461D-03
  0.10375730D-03
MO    5     MO 0.0        OCC NO =    2.0000000  ORB. ENERGY =    0.000000
 -0.37108116D-01 -0.69163426D-01 -0.11727631D+00 -0.17748522D+00 -0.22139882D+00
 -0.18999313D+00 -0.72757275D-01 -0.14878245D-02 -0.15963380D-01 -0.58844026D-01
 -0.17205648D+00 -0.20733642D+00  0.24975869D+00  0.14942127D+00  0.10454645D+00
  0.10420386D-01 -0.20976947D-01 -0.20340582D-01 -0.13721637D-01 -0.26357389D+00
 -0.25557801D+00 -0.17241142D+00  0.99514868D+00  0.96495947D+00  0.65095596D+00
 -0.30512660D-02 -0.54718579D-01  0.21283354D+00  0.29952000D-03 -0.52712268D-02
  0.29741465D-01  0.61672750D-04 -0.55784430D-04  0.57761974D-03  0.82777025D-02
  0.17918675D-01 -0.26196378D-01 -0.25331498D-02  0.49812860D-02  0.24393213D-01
 -0.11466060D-02  0.82050324D-02 -0.70584264D-02  0.19842904D-03  0.39692026D-03
  0.32442821D-02 -0.48041836D-03  0.84387617D-03 -0.36345782D-03  0.10730535D-03
 -0.11952150D-03 -0.14828487D-03  0.25967771D-03 -0.12734758D-02  0.27832581D-02
  0.13631988D-02  0.27674905D-02 -0.65427775D-02 -0.21422319D-02  0.10529367D-02
 -0.18069967D-02  0.76238320D-03 -0.16306147D-04 -0.19815178D-04  0.16088087D-03
  0.83718696D-04  0.15761048D-03 -0.32508161D-04 -0.34800255D-04 -0.98164950D-04
 -0.45013445D-03  0.34106399D-04  0.51760164D-02  0.93351588D-02  0.13764686D-01
 -0.12646835D-01 -0.71677663D-02 -0.17448319D-03 -0.76488732D-03  0.37753694D-02
  0.19377245D-01  0.98081472D-04 -0.59109949D-02  0.44984397D-02  0.32104074D-04
 -0.60304530D-03  0.64131544D-03 -0.59576503D-03 -0.30786180D-02  0.36743831D-02
  0.25546368D-04 -0.35253578D-03  0.47246258D-02  0.14720552D-03 -0.31460685D-03
  0.16740134D-03  0.20284982D-04  0.55946901D-04  0.25102558D-03 -0.83754594D-02
 -0.15105486D-01 -0.22273030D-01 -0.37428708D-01 -0.10194865D-01 -0.13196981D-03
  0.49192919D-03  0.35818721D-02  0.94120816D-02  0.10721098D-02  0.85594361D-02
  0.53958816D-03  0.76798154D-04  0.50329596D-03  0.56886079D-03  0.18446022D-02
 -0.42732624D-02  0.24286603D-02 -0.15476564D-02  0.54925807D-03  0.27665682D-02
  0.17097808D-03 -0.26214291D-03  0.91164827D-04 -0.10690890D-03  0.72807261D-04
 -0.31765877D-04
END DATA
 TOTAL ENERGY =    -76.466170759233 THE VIRIAL(-V/T)=   2.00611198
