 60
GAUSSIAN              5 MOL ORBITALS    126 PRIMITIVES        3 NUCLEI   B3LYP   B3LYP   B3LYP
  O    1    (CENTRE  1)   0.09448631  0.00000000  0.00815606  CHARGE =  8.0
  H    2    (CENTRE  2)   0.00000000 -1.44255835 -1.09730160  CHARGE =  1.0
  H    3    (CENTRE  3)  -0.09448631  1.44255835 -1.09730160  CHARGE =  1.0
CENTRE ASSIGNMENTS    1  1  1  1  1  1  1  1  1  1  1  1  1  1  1  1  1  1  1  1
CENTRE ASSIGNMENTS    1  1  1  1  1  1  1  1  1  1  1  1  1  1  1  1  1  1  1  1
CENTRE ASSIGNMENTS    1  1  1  1  1  1  1  1  1  1  1  1  1  1  1  1  1  1  1  1
CENTRE ASSIGNMENTS    1  1  1  1  1  1  1  1  1  1  1  1  2  2  2  2  2  2  2  2
CENTRE ASSIGNMENTS    2  2  2  2  2  2  2  2  2  2  2  2  2  2  2  2  2  2  2  3
CENTRE ASSIGNMENTS    3  3  3  3  3  3  3  3  3  3  3  3  3  3  3  3  3  3  3  3
CENTRE ASSIGNMENTS    3  3  3  3  3  3
TYPE ASSIGNMENTS      1  1  1  1  1  1  1  1  1  1  1  1  1  1  1  1  2  2  2  3
TYPE ASSIGNMENTS      3  3  4  4  4  2  3  4  2  3  4  2  3  4  5  6  7  8  9 10
TYPE ASSIGNMENTS      5  6  7  8  9 10  5  6  7  8  9 10 11 12 13 17 14 15 18 19
TYPE ASSIGNMENTS     16 20 11 12 13 17 14 15 18 19 16 20  1  1  1  1  1  1  2  3
TYPE ASSIGNMENTS      4  2  3  4  2  3  4  5  6  7  8  9 10  5  6  7  8  9 10  1
TYPE ASSIGNMENTS      1  1  1  1  1  2  3  4  2  3  4  2  3  4  5  6  7  8  9 10
TYPE ASSIGNMENTS      5  6  7  8  9 10
EXPONENTS  0.1533000D+05 0.2299000D+04 0.5224000D+03 0.1473000D+03 0.4755000D+02
EXPONENTS  0.1676000D+02 0.6207000D+01 0.5224000D+03 0.1473000D+03 0.4755000D+02
EXPONENTS  0.1676000D+02 0.6207000D+01 0.6882000D+00 0.1752000D+01 0.2384000D+00
EXPONENTS  0.7376000D-01 0.3446000D+02 0.7749000D+01 0.2280000D+01 0.3446000D+02
EXPONENTS  0.7749000D+01 0.2280000D+01 0.3446000D+02 0.7749000D+01 0.2280000D+01
EXPONENTS  0.7156000D+00 0.7156000D+00 0.7156000D+00 0.2140000D+00 0.2140000D+00
EXPONENTS  0.2140000D+00 0.5974000D-01 0.5974000D-01 0.5974000D-01 0.2314000D+01
EXPONENTS  0.2314000D+01 0.2314000D+01 0.2314000D+01 0.2314000D+01 0.2314000D+01
EXPONENTS  0.6450000D+00 0.6450000D+00 0.6450000D+00 0.6450000D+00 0.6450000D+00
EXPONENTS  0.6450000D+00 0.2140000D+00 0.2140000D+00 0.2140000D+00 0.2140000D+00
EXPONENTS  0.2140000D+00 0.2140000D+00 0.1428000D+01 0.1428000D+01 0.1428000D+01
EXPONENTS  0.1428000D+01 0.1428000D+01 0.1428000D+01 0.1428000D+01 0.1428000D+01
EXPONENTS  0.1428000D+01 0.1428000D+01 0.5000000D+00 0.5000000D+00 0.5000000D+00
EXPONENTS  0.5000000D+00 0.5000000D+00 0.5000000D+00 0.5000000D+00 0.5000000D+00
EXPONENTS  0.5000000D+00 0.5000000D+00 0.3387000D+02 0.5095000D+01 0.1159000D+01
EXPONENTS  0.3258000D+00 0.1027000D+00 0.2526000D-01 0.1407000D+01 0.1407000D+01
EXPONENTS  0.1407000D+01 0.3880000D+00 0.3880000D+00 0.3880000D+00 0.1020000D+00
EXPONENTS  0.1020000D+00 0.1020000D+00 0.1057000D+01 0.1057000D+01 0.1057000D+01
EXPONENTS  0.1057000D+01 0.1057000D+01 0.1057000D+01 0.2470000D+00 0.2470000D+00
EXPONENTS  0.2470000D+00 0.2470000D+00 0.2470000D+00 0.2470000D+00 0.3387000D+02
EXPONENTS  0.5095000D+01 0.1159000D+01 0.3258000D+00 0.1027000D+00 0.2526000D-01
EXPONENTS  0.1407000D+01 0.1407000D+01 0.1407000D+01 0.3880000D+00 0.3880000D+00
EXPONENTS  0.3880000D+00 0.1020000D+00 0.1020000D+00 0.1020000D+00 0.1057000D+01
EXPONENTS  0.1057000D+01 0.1057000D+01 0.1057000D+01 0.1057000D+01 0.1057000D+01
EXPONENTS  0.2470000D+00 0.2470000D+00 0.2470000D+00 0.2470000D+00 0.2470000D+00
EXPONENTS  0.2470000D+00
MO    1     MO 0.0        OCC NO =    2.0000000  ORB. ENERGY =    0.000000
  0.15861810D+00  0.29563807D+00  0.50129589D+00  0.75865802D+00  0.94636608D+00
  0.81212289D+00  0.31099992D+00 -0.17418903D-03 -0.18689340D-02 -0.68892428D-02
 -0.20143742D-01 -0.24274188D-01  0.29240832D-01  0.36284452D-01 -0.37252131D-01
 -0.76165870D-02  0.10567256D+00  0.10246683D+00  0.69123521D-01 -0.10120412D+00
 -0.98133950D-01 -0.66200583D-01 -0.14428693D+01 -0.13990979D+01 -0.94382317D+00
  0.25362863D-01 -0.20616038D-01 -0.31363214D+00  0.58987931D-02 -0.17275769D-02
 -0.37773295D-01  0.24650377D-03 -0.10537603D-04 -0.75517248D-03 -0.42766247D-01
  0.45598440D-02  0.38206403D-01 -0.18386958D-02  0.87340070D-02  0.10408992D-01
 -0.60265510D-02 -0.52908738D-02  0.11317425D-01  0.10679006D-03  0.13609105D-02
  0.11877701D-02  0.70383359D-03 -0.12932720D-02  0.58943841D-03  0.11872204D-03
 -0.23480100D-03 -0.12234111D-03  0.58086759D-03 -0.39705672D-03 -0.92067168D-03
  0.17360037D-02  0.95757791D-03  0.17955827D-01 -0.34786065D-02  0.23359225D-03
 -0.15193812D-01  0.20155169D-02 -0.43591202D-04 -0.10178996D-04 -0.67681077D-03
  0.33882631D-03  0.20212297D-04  0.15914913D-03 -0.20805271D-03  0.10324692D-04
  0.18712832D-02 -0.12905306D-03  0.31354594D-01  0.56549302D-01  0.83381913D-01
  0.58927948D-01  0.85516610D-02  0.84760395D-04  0.36227087D-02  0.28852576D-01
  0.45914679D-02  0.18548282D-02  0.12347542D-01  0.73169406D-03  0.20320584D-03
  0.16799199D-03 -0.97917738D-03 -0.40782932D-02  0.70059722D-02 -0.29276790D-02
  0.24147373D-02  0.14910788D-02  0.91132998D-02 -0.10074380D-03  0.22366472D-03
 -0.12292092D-03  0.13449970D-03  0.13876227D-03 -0.39351766D-03  0.25814417D-01
  0.46557365D-01  0.68648807D-01  0.48622794D-01  0.73981308D-02  0.10344948D-03
  0.48261557D-02 -0.25246714D-01  0.44023554D-03  0.23979054D-02 -0.11067128D-01
 -0.86633407D-03  0.21118778D-03 -0.20394785D-03 -0.99615735D-03 -0.28485349D-02
  0.62600690D-02 -0.34115341D-02 -0.33147468D-02  0.15633217D-02 -0.57939646D-02
 -0.95082463D-04  0.24008844D-03 -0.14500598D-03 -0.16889099D-03  0.10352789D-03
  0.45749931D-03
MO    2     MO 0.0        OCC NO =    2.0000000  ORB. ENERGY =    0.000000
  0.10681559D+00  0.19908669D+00  0.33757946D+00  0.51089062D+00  0.63729578D+00
  0.54689459D+00  0.20943157D+00 -0.63148362D-04 -0.67754049D-03 -0.24975418D-02
 -0.73026657D-02 -0.88000673D-02  0.10600614D-01  0.19222131D-01  0.16154859D-01
  0.24386749D-02  0.16552109D+01  0.16049978D+01  0.10827221D+01  0.42738643D+00
  0.41442107D+00  0.27956601D+00  0.16129841D+00  0.15640520D+00  0.10551002D+00
  0.37364118D+00  0.89546210D-01  0.33150843D-01  0.61261915D-01  0.93455139D-02
  0.20856266D-02  0.19556610D-02  0.13779997D-03 -0.58441367D-04  0.33279829D-03
  0.91533434D-03 -0.12481326D-02 -0.46975847D-02 -0.68218986D-01 -0.36972091D-01
 -0.10507962D-02  0.16753783D-02 -0.62458203D-03 -0.71821809D-03 -0.17617810D-01
 -0.51531265D-02 -0.33206674D-03  0.32822942D-03  0.38373124D-05  0.23341728D-05
 -0.11154239D-02  0.20929859D-03 -0.97290014D-02  0.23918081D-02 -0.59777479D-03
  0.19965659D-01 -0.60585157D-02  0.21843074D-02  0.92213456D-02 -0.11169085D-02
 -0.39098307D-03  0.86683969D-03 -0.34887947D-03  0.49151947D-04  0.47369118D-04
  0.48336252D-03 -0.29292026D-03  0.17055334D-03  0.56327588D-03  0.14546442D-03
 -0.31266069D-03  0.71850155D-04 -0.15715793D-01 -0.28344079D-01 -0.41793328D-01
 -0.31142488D-01 -0.45304139D-02 -0.12622920D-05  0.21941481D-01 -0.10444597D-01
 -0.95764686D-02  0.12018150D-01 -0.47385012D-02 -0.43730246D-02  0.19090219D-02
  0.40667109D-04 -0.57621163D-04  0.35942599D-02 -0.24879079D-02 -0.11063520D-02
  0.10572591D-01  0.76599147D-02 -0.89031933D-02  0.10822327D-03  0.35683206D-05
 -0.11179159D-03  0.11665362D-02  0.70115376D-03 -0.19129724D-03  0.34403654D-02
  0.62048407D-02  0.91490340D-02  0.42483406D-02 -0.26545988D-03 -0.62360881D-04
  0.23152561D-01  0.13201057D-02  0.44891151D-02  0.12424951D-01  0.16690357D-02
  0.12781053D-02  0.19032132D-02  0.22729423D-03  0.39943201D-04  0.75354655D-03
 -0.14040291D-02  0.65048252D-03 -0.11349085D-01  0.86878404D-02 -0.12958571D-02
  0.15312784D-03 -0.14779071D-03 -0.53371270D-05 -0.11680508D-02  0.71758580D-03
 -0.63795077D-04
MO    3     MO 0.0        OCC NO =    2.0000000  ORB. ENERGY =    0.000000
  0.42371397D-01  0.78973318D-01  0.13391036D+00  0.20265909D+00  0.25280124D+00
  0.21694107D+00  0.83076905D-01 -0.17018968D-04 -0.18260236D-03 -0.67310668D-03
 -0.19681245D-02 -0.23716857D-02  0.28569467D-02  0.66449542D-02 -0.29328469D-02
 -0.67579435D-03 -0.53568567D+00 -0.51943491D+00 -0.35040772D+00  0.13889877D+01
  0.13468509D+01  0.90857764D+00 -0.69656324D-01 -0.67543203D-01 -0.45564246D-01
 -0.12002140D+00  0.28777845D+00 -0.14833561D-01 -0.18950254D-01  0.27205172D-01
 -0.12755135D-02 -0.58259640D-03  0.26157420D-03  0.30595450D-05 -0.98798624D-03
  0.10069272D-03  0.88729352D-03 -0.16800311D-01  0.25049002D-01 -0.12998411D+00
  0.12455990D-03 -0.50219061D-03  0.37763070D-03 -0.22058389D-02  0.58749295D-02
 -0.17204869D-01  0.92216171D-04 -0.10778172D-03  0.15565546D-04  0.12258848D-03
  0.29872518D-03  0.89537563D-03  0.34265157D-02  0.63169011D-02  0.29048189D-03
 -0.76528506D-02 -0.13579852D-01 -0.10220576D-03 -0.26266966D-02 -0.53708515D-02
 -0.76923992D-03  0.23862587D-02  0.12937611D-03  0.10705803D-03 -0.41346529D-04
 -0.19936564D-03 -0.81104543D-03 -0.76694135D-04 -0.18876267D-03  0.48987134D-03
  0.20073372D-03  0.34412662D-03 -0.33342107D-01 -0.60133862D-01 -0.88667345D-01
 -0.61562194D-01 -0.72807859D-02  0.12342909D-03 -0.93448928D-02 -0.17601454D-01
 -0.25406766D-01 -0.47254498D-02 -0.63160278D-02 -0.10179092D-01 -0.59469088D-03
  0.27216866D-03 -0.20253677D-03  0.62293222D-02 -0.29250130D-02 -0.33043092D-02
 -0.51691396D-02 -0.43422284D-02 -0.19277051D-01  0.32391036D-04  0.15415107D-03
 -0.18654211D-03 -0.42587939D-03 -0.25751253D-03 -0.56479354D-03  0.38705282D-01
  0.69806571D-01  0.10292975D+00  0.71313805D-01  0.87828080D-02 -0.10663331D-03
 -0.23789929D-02 -0.22304787D-01  0.27253415D-01 -0.19133952D-02 -0.83525132D-02
  0.10987256D-01 -0.54280545D-03  0.23302616D-03  0.16503206D-03 -0.72008261D-02
  0.39443070D-02  0.32565191D-02 -0.12266807D-03  0.90547959D-03 -0.20907160D-01
 -0.11247818D-03 -0.10280346D-03  0.21528164D-03  0.26634735D-03 -0.11512669D-03
 -0.60050822D-03
MO    4     MO 0.0        OCC NO =    2.0000000  ORB. ENERGY =    0.000000
  0.46806370D+00  0.87239378D+00  0.14792662D+01  0.22387122D+01  0.27926170D+01
  0.23964808D+01  0.91772484D+00  0.36947259D-03  0.39641985D-02  0.14612782D-01
  0.42726917D-01  0.51488013D-01 -0.62022768D-01  0.17293327D-01 -0.18950220D-02
  0.14045982D-02 -0.38364043D+00 -0.37200217D+00 -0.25095046D+00 -0.19456118D+00
 -0.18865890D+00 -0.12726818D+00  0.44238769D+00  0.42896724D+00  0.28937877D+00
 -0.86975347D-01 -0.40789305D-01  0.98151575D-01 -0.14998567D-01 -0.41787165D-02
  0.11515002D-01 -0.49958576D-03 -0.54564376D-04  0.24836881D-03  0.14734102D-01
 -0.23204301D-02 -0.12413672D-01  0.33410930D-02  0.11047000D-01  0.17257924D-01
  0.31909795D-02  0.49889403D-03 -0.36898735D-02  0.46695899D-03  0.29738712D-02
  0.24611406D-02 -0.12537531D-03  0.32291466D-03 -0.19753936D-03 -0.44920421D-04
  0.30822680D-03 -0.81059461D-04  0.18857180D-02 -0.10175560D-02  0.65103143D-03
 -0.48090695D-02  0.24343947D-02 -0.60133354D-02 -0.84808468D-03  0.61827321D-03
  0.40602411D-02 -0.10168209D-02  0.44535497D-04 -0.16026517D-04  0.10888991D-03
 -0.12792036D-03  0.12953127D-03 -0.40528910D-03 -0.56861348D-05 -0.81451723D-04
  0.78619358D-04 -0.69196417D-04 -0.64376873D-02 -0.11610634D-01 -0.17119873D-01
 -0.93448252D-02 -0.92571828D-03 -0.28120915D-04 -0.58508919D-02 -0.90605872D-02
  0.29873363D-03 -0.31479694D-02 -0.33067331D-02  0.86034675D-03 -0.47590842D-03
 -0.86650563D-04  0.31924661D-03  0.13311936D-02 -0.26647393D-02  0.13335457D-02
 -0.32227620D-02 -0.22166606D-02 -0.32628563D-02  0.64221697D-05 -0.84350891D-04
  0.77928721D-04 -0.28991286D-03 -0.19179476D-03  0.19488962D-03 -0.15691670D-01
 -0.28300572D-01 -0.41729178D-01 -0.26281250D-01 -0.29761105D-02  0.26603647D-05
 -0.73884298D-02  0.13529114D-01 -0.63608424D-02 -0.37295798D-02  0.48582987D-02
 -0.18185698D-02 -0.48077809D-03 -0.19872652D-04  0.27277424D-03  0.27285764D-02
 -0.32228507D-02  0.49427429D-03  0.44949060D-02 -0.32062713D-02  0.80443072D-02
  0.51454428D-05 -0.27470719D-04  0.22325276D-04  0.31494900D-03 -0.19880667D-03
 -0.53746394D-04
MO    5     MO 0.0        OCC NO =    2.0000000  ORB. ENERGY =    0.000000
 -0.42616893D-01 -0.79430882D-01 -0.13468622D+00 -0.20383328D+00 -0.25426595D+00
 -0.21819801D+00 -0.83558246D-01 -0.16942454D-02 -0.18178142D-01 -0.67008053D-01
 -0.19592762D+00 -0.23610230D+00  0.28441025D+00  0.16991372D+00  0.99051226D-01
  0.83257965D-02 -0.11272006D+00 -0.10930054D+00 -0.73733501D-01 -0.60822928D-01
 -0.58977780D-01 -0.39786062D-01  0.53710902D+00  0.52081508D+00  0.35133878D+00
 -0.26563420D-01 -0.12620758D-01  0.11297238D+00 -0.44417333D-02 -0.12512836D-02
  0.18278257D-01 -0.17274687D-03 -0.17184045D-04  0.35725296D-03 -0.65492058D-02
  0.20909779D-01 -0.14360573D-01 -0.10825839D-02  0.54735777D-02  0.56004276D-02
 -0.34109498D-02  0.68712761D-02 -0.34603263D-02 -0.59854334D-03  0.19601083D-02
  0.69512571D-03 -0.23889039D-03  0.41726142D-03 -0.17837104D-03 -0.49625970D-04
  0.15030524D-03 -0.34673469D-04  0.99119993D-03 -0.35203382D-03  0.27178115D-02
 -0.31522025D-02  0.85549468D-03 -0.81860343D-03  0.17860274D-03  0.20060679D-03
 -0.73348311D-02  0.32556549D-03  0.46530152D-04 -0.58836784D-05 -0.64977825D-04
 -0.38139386D-04  0.28295560D-04  0.36024995D-04 -0.10145107D-03 -0.10644525D-04
  0.15890848D-03 -0.97745157D-05  0.11025957D-01  0.19885768D-01  0.29321553D-01
 -0.33064523D-02 -0.59445070D-02 -0.13404707D-03 -0.60159978D-03  0.11630168D-01
  0.18105166D-01 -0.85843673D-03 -0.29245543D-02  0.33480766D-02 -0.15653087D-03
 -0.53611663D-03  0.30793011D-03 -0.11571267D-02 -0.11631674D-02  0.23202940D-02
 -0.58012109D-03 -0.22938207D-03  0.53156952D-02  0.12420614D-03 -0.22865362D-03
  0.10444749D-03 -0.10493689D-03 -0.89998993D-04  0.29497743D-04  0.80160002D-02
  0.14457186D-01  0.21317113D-01 -0.86779978D-02 -0.65969001D-02 -0.12508118D-03
 -0.16748287D-03 -0.99778986D-02  0.15791897D-01 -0.11651382D-02  0.34487773D-02
  0.24910262D-02 -0.19130312D-03  0.50657651D-03  0.29250974D-03 -0.63758709D-03
 -0.14013625D-02  0.20389495D-02  0.84243583D-03 -0.14534120D-03 -0.36256267D-02
  0.12142236D-03 -0.21165157D-03  0.90229211D-04  0.15433927D-03 -0.92824720D-04
  0.84262528D-05
END DATA
 TOTAL ENERGY =    -76.466170759233 THE VIRIAL(-V/T)=   2.00611198
