 60
GAUSSIAN              5 MOL ORBITALS    126 PRIMITIVES        3 NUCLEI   B3LYP   B3LYP   B3LYP
  O    1    (CENTRE  1)  -0.09448631  0.00000000  0.00815606  CHARGE =  8.0
  H    2    (CENTRE  2)   0.00000000 -1.44255835 -1.09730160  CHARGE =  1.0
  H    3    (CENTRE  3)  -0.09448631  1.44255835 -1.09730160  CHARGE =  1.0
CENTRE ASSIGNMENTS    1  1  1  1  1  1  1  1  1  1  1  1  1  1  1  1  1  1  1  1
CENTRE ASSIGNMENTS    1  1  1  1  1  1  1  1  1  1  1  1  1  1  1  1  1  1  1  1
CENTRE ASSIGNMENTS    1  1  1  1  1  1  1  1  1  1  1  1  1  1  1  1  1  1  1  1
CENTRE ASSIGNMENTS    1  1  1  1  1  1  1  1  1  1  1  1  2  2  2  2  2  2  2  2
CENTRE ASSIGNMENTS    2  2  2  2  2  2  2  2  2  2  2  2  2  2  2  2  2  2  2  3
CENTRE ASSIGNMENTS    3  3  3  3  3  3  3  3  3  3  3  3  3  3  3  3  3  3  3  3
CENTRE ASSIGNMENTS    3  3  3  3  3  3
TYPE ASSIGNMENTS      1  1  1  1  1  1  1  1  1  1  1  1  1  1  1  1  2  2  2  3
TYPE ASSIGNMENTS      3  3  4  4  4  2  3  4  2  3  4  2  3  4  5  6  7  8  9 10
TYPE ASSIGNMENTS      5  6  7  8  9 10  5  6  7  8  9 10 11 12 13 17 14 15 18 19
TYPE ASSIGNMENTS     16 20 11 12 13 17 14 15 18 19 16 20  1  1  1  1  1  1  2  3
TYPE ASSIGNMENTS      4  2  3  4  2  3  4  5  6  7  8  9 10  5  6  7  8  9 10  1
TYPE ASSIGNMENTS      1  1  1  1  1  2  3  4  2  3  4  2  3  4  5  6  7  8  9 10
TYPE ASSIGNMENTS      5  6  7  8  9 10
EXPONENTS  0.1533000D+05 0.2299000D+04 0.5224000D+03 0.1473000D+03 0.4755000D+02
EXPONENTS  0.1676000D+02 0.6207000D+01 0.5224000D+03 0.1473000D+03 0.4755000D+02
EXPONENTS  0.1676000D+02 0.6207000D+01 0.6882000D+00 0.1752000D+01 0.2384000D+00
EXPONENTS  0.7376000D-01 0.3446000D+02 0.7749000D+01 0.2280000D+01 0.3446000D+02
EXPONENTS  0.7749000D+01 0.2280000D+01 0.3446000D+02 0.7749000D+01 0.2280000D+01
EXPONENTS  0.7156000D+00 0.7156000D+00 0.7156000D+00 0.2140000D+00 0.2140000D+00
EXPONENTS  0.2140000D+00 0.5974000D-01 0.5974000D-01 0.5974000D-01 0.2314000D+01
EXPONENTS  0.2314000D+01 0.2314000D+01 0.2314000D+01 0.2314000D+01 0.2314000D+01
EXPONENTS  0.6450000D+00 0.6450000D+00 0.6450000D+00 0.6450000D+00 0.6450000D+00
EXPONENTS  0.6450000D+00 0.2140000D+00 0.2140000D+00 0.2140000D+00 0.2140000D+00
EXPONENTS  0.2140000D+00 0.2140000D+00 0.1428000D+01 0.1428000D+01 0.1428000D+01
EXPONENTS  0.1428000D+01 0.1428000D+01 0.1428000D+01 0.1428000D+01 0.1428000D+01
EXPONENTS  0.1428000D+01 0.1428000D+01 0.5000000D+00 0.5000000D+00 0.5000000D+00
EXPONENTS  0.5000000D+00 0.5000000D+00 0.5000000D+00 0.5000000D+00 0.5000000D+00
EXPONENTS  0.5000000D+00 0.5000000D+00 0.3387000D+02 0.5095000D+01 0.1159000D+01
EXPONENTS  0.3258000D+00 0.1027000D+00 0.2526000D-01 0.1407000D+01 0.1407000D+01
EXPONENTS  0.1407000D+01 0.3880000D+00 0.3880000D+00 0.3880000D+00 0.1020000D+00
EXPONENTS  0.1020000D+00 0.1020000D+00 0.1057000D+01 0.1057000D+01 0.1057000D+01
EXPONENTS  0.1057000D+01 0.1057000D+01 0.1057000D+01 0.2470000D+00 0.2470000D+00
EXPONENTS  0.2470000D+00 0.2470000D+00 0.2470000D+00 0.2470000D+00 0.3387000D+02
EXPONENTS  0.5095000D+01 0.1159000D+01 0.3258000D+00 0.1027000D+00 0.2526000D-01
EXPONENTS  0.1407000D+01 0.1407000D+01 0.1407000D+01 0.3880000D+00 0.3880000D+00
EXPONENTS  0.3880000D+00 0.1020000D+00 0.1020000D+00 0.1020000D+00 0.1057000D+01
EXPONENTS  0.1057000D+01 0.1057000D+01 0.1057000D+01 0.1057000D+01 0.1057000D+01
EXPONENTS  0.2470000D+00 0.2470000D+00 0.2470000D+00 0.2470000D+00 0.2470000D+00
EXPONENTS  0.2470000D+00
MO    1     MO 0.0        OCC NO =    2.0000000  ORB. ENERGY =    0.000000
 -0.21801059D-01 -0.40633589D-01 -0.68899960D-01 -0.10427276D+00 -0.13007205D+00
 -0.11162117D+00 -0.42744979D-01 -0.69338670D-03 -0.74395842D-02 -0.27423708D-01
 -0.80185314D-01 -0.96627203D-01  0.11639771D+00  0.68620387D-01 -0.10000259D-01
 -0.54743240D-02  0.33391750D+00  0.32378766D+00  0.21842524D+00  0.99410787D-02
  0.96395024D-02  0.65027513D-02 -0.13004917D+01 -0.12610395D+01 -0.85068982D+00
  0.74985688D-01  0.21390847D-02 -0.28364921D+00  0.11720208D-01  0.30691629D-03
 -0.32290641D-01  0.35835365D-03  0.10674590D-04 -0.63066545D-03 -0.44744393D-01
  0.10254409D-01  0.34489984D-01 -0.35934746D-02 -0.18207392D-01 -0.63302740D-03
 -0.70230583D-02 -0.34014354D-02  0.10424494D-01 -0.24358382D-03 -0.44422054D-02
 -0.67668149D-04  0.69420516D-03 -0.12181959D-02  0.52399074D-03  0.12389989D-03
 -0.18106854D-03  0.11096186D-04 -0.24219711D-02  0.11975104D-03 -0.30415018D-03
  0.41955035D-02 -0.47429241D-03  0.17571244D-01  0.30704097D-02  0.11503929D-03
 -0.16658793D-01  0.22420214D-02 -0.69171274D-04  0.46031855D-05 -0.67557952D-03
  0.99153038D-05 -0.47810299D-06  0.22200858D-03  0.19759852D-03 -0.13331454D-04
  0.18047300D-02 -0.98650811D-04  0.32349226D-01  0.58343161D-01  0.86026957D-01
  0.54104220D-01  0.64500438D-02  0.59151628D-04  0.24736380D-02  0.31584694D-01
  0.81636761D-02  0.16749372D-02  0.11453318D-01  0.11658489D-02  0.36012798D-03
  0.59016087D-04 -0.88740362D-03 -0.44555585D-02  0.68988383D-02 -0.24432798D-02
  0.74045320D-03  0.91829440D-03  0.10294736D-01 -0.89741604D-04  0.18167281D-03
 -0.91931204D-04  0.20151995D-03  0.13944702D-03 -0.41285881D-03  0.32367600D-01
  0.58376299D-01  0.86075818D-01  0.54163627D-01  0.64296954D-02  0.58979238D-04
  0.45476994D-02 -0.31476382D-01  0.82315916D-02  0.24275290D-02 -0.11339605D-01
  0.11645322D-02  0.36410802D-03 -0.34062030D-04 -0.89065948D-03 -0.43768576D-02
  0.68229272D-02 -0.24460697D-02 -0.22193454D-02  0.15970343D-02 -0.10288877D-01
 -0.71008994D-04  0.16624799D-03 -0.95238997D-04 -0.23611175D-03  0.11326409D-03
  0.43184393D-03
MO    2     MO 0.0        OCC NO =    2.0000000  ORB. ENERGY =    0.000000
 -0.16618283D+00 -0.30973747D+00 -0.52520341D+00 -0.79483952D+00 -0.99149965D+00
 -0.85085421D+00 -0.32583196D+00 -0.72402204D-04 -0.77682814D-03 -0.28635348D-02
 -0.83728077D-02 -0.10089640D-01  0.12154041D-01 -0.12124228D-01  0.21517360D-02
  0.98365195D-04 -0.10513818D+00 -0.10194867D+00 -0.68773971D-01  0.13859477D+01
  0.13439030D+01  0.90658906D+00 -0.52320090D-02 -0.50732888D-02 -0.34224106D-02
 -0.22871376D-01  0.28672375D+00 -0.14736871D-02 -0.31111305D-02  0.26954122D-01
  0.22421905D-04 -0.80097651D-04  0.26531534D-03  0.47805765D-06 -0.33102737D-03
  0.12048438D-03  0.21054299D-03  0.55304278D-02  0.66824450D-02 -0.12981261D+00
 -0.27502523D-03  0.20913964D-03  0.65885595D-04  0.69399217D-03  0.11614457D-02
 -0.16910317D-01 -0.33628327D-05  0.26553309D-05  0.70750180D-06 -0.41792503D-04
  0.96474578D-05  0.97260095D-03  0.82590789D-03  0.64604690D-02 -0.11493454D-03
 -0.23321796D-02 -0.13985384D-01 -0.85139624D-04 -0.14554411D-03 -0.53960229D-02
  0.42994325D-03 -0.78424149D-03  0.35182678D-04  0.11376214D-03  0.30227469D-04
 -0.75025965D-04 -0.80648673D-03  0.98559757D-04 -0.30522068D-04  0.46520032D-03
 -0.18924217D-03 -0.91328617D-04 -0.34953643D-01 -0.63040336D-01 -0.92952938D-01
 -0.65090879D-01 -0.79522601D-02  0.10919285D-03  0.88742638D-03 -0.18968363D-01
 -0.25650811D-01  0.21830060D-03 -0.69897872D-02 -0.10330888D-01 -0.70582958D-04
  0.25600641D-03 -0.17741537D-03  0.63295258D-02 -0.30854082D-02 -0.32441176D-02
  0.10143564D-02  0.11348167D-02 -0.18923558D-01  0.56967060D-04  0.13703755D-03
 -0.19400461D-03 -0.24759142D-04  0.12793335D-04 -0.55812493D-03  0.36426778D-01
  0.65697194D-01  0.96870475D-01  0.66890055D-01  0.79338207D-02 -0.11364609D-03
 -0.13020413D-02 -0.20988788D-01  0.27070698D-01 -0.66588073D-03 -0.76061741D-02
  0.10798281D-01 -0.86320250D-04  0.25395280D-03  0.18959103D-03 -0.72096958D-02
  0.38654926D-02  0.33442032D-02  0.60380041D-03 -0.50812557D-03 -0.21401634D-01
 -0.55472646D-04 -0.14057444D-03  0.19604708D-03  0.73175649D-04 -0.29965348D-04
 -0.56475765D-03
MO    3     MO 0.0        OCC NO =    2.0000000  ORB. ENERGY =    0.000000
  0.36368879D+00  0.67785610D+00  0.11494003D+01  0.17394951D+01  0.21698830D+01
  0.18620825D+01  0.71307865D+00  0.12581271D-02  0.13498878D-01  0.49759407D-01
  0.14549359D+00  0.17532685D+00 -0.21119977D+00 -0.87013199D-01 -0.78108077D-01
 -0.71845313D-02  0.42082415D+00  0.40805787D+00  0.27527343D+00  0.35382306D+00
  0.34308935D+00  0.23144605D+00 -0.57771604D+00 -0.56019022D+00 -0.37790101D+00
  0.94883790D-01  0.73499042D-01 -0.12193080D+00  0.15673158D-01  0.71429300D-02
 -0.17858054D-01  0.49714405D-03  0.82035142D-04 -0.33770742D-03 -0.15402460D-02
 -0.13491691D-01  0.15031937D-01  0.21621190D-02 -0.17087069D-01 -0.32401340D-01
  0.20893998D-02 -0.59845854D-02  0.38951856D-02  0.70387502D-03 -0.43285589D-02
 -0.43141244D-02  0.33111825D-03 -0.52491535D-03  0.19379710D-03  0.44768027D-04
 -0.28171484D-03  0.22817707D-03 -0.24600239D-02  0.17539608D-02 -0.16885001D-02
  0.46290750D-02 -0.40426855D-02  0.31181694D-02  0.27509967D-02 -0.12191969D-02
  0.19473310D-02 -0.11641453D-03 -0.70563406D-04  0.32231969D-04 -0.11581133D-03
  0.86560898D-04 -0.21510837D-03 -0.22551126D-03  0.12512932D-03  0.11841246D-03
  0.57294526D-03 -0.75144671D-04 -0.11707479D-01 -0.21114920D-01 -0.31133937D-01
 -0.44213933D-02  0.36951987D-02  0.13607001D-03  0.67297885D-02 -0.91568542D-02
 -0.18409227D-01  0.32114902D-02  0.19846773D-02 -0.47827653D-02  0.47638516D-03
  0.46083023D-03 -0.40135456D-03  0.21587876D-02  0.61067624D-03 -0.27694639D-02
  0.32891602D-02  0.27977871D-02 -0.86214205D-02 -0.11241955D-03  0.23673253D-03
 -0.12431298D-03  0.28127291D-03  0.19182259D-03 -0.21059560D-03  0.57502383D-02
  0.10370792D-01  0.15291726D-01  0.27874591D-01  0.75719814D-02  0.81016387D-04
  0.59037961D-02 -0.18754092D-03 -0.55515939D-02  0.32395061D-02 -0.53277442D-02
  0.37739498D-03  0.49857242D-03 -0.30003217D-03 -0.31323574D-03 -0.93811307D-03
  0.21013823D-02 -0.11632692D-02 -0.29713926D-02  0.21387495D-02 -0.10515133D-02
 -0.11859391D-03  0.14720249D-03 -0.28608572D-04 -0.31080835D-03  0.17743962D-03
 -0.50113559D-04
MO    4     MO 0.0        OCC NO =    2.0000000  ORB. ENERGY =    0.000000
  0.48030917D-01  0.89521732D-01  0.15179668D+00  0.22972813D+00  0.28656773D+00
  0.24591775D+00  0.94173434D-01 -0.58004280D-03 -0.62234786D-02 -0.22940914D-01
 -0.67077887D-01 -0.80832115D-01  0.97370849D-01  0.65665907D-01  0.47757751D-01
  0.52575010D-02  0.15273693D+01  0.14810344D+01  0.99909709D+00  0.16770565D+00
  0.16261807D+00  0.10970119D+00  0.65029046D+00  0.63056300D+00  0.42537407D+00
  0.34528369D+00  0.35677594D-01  0.14053927D+00  0.57010575D-01  0.41753300D-02
  0.19174027D-01  0.18380449D-02  0.83385101D-04  0.40238315D-03  0.11016342D-01
  0.72100090D-02 -0.18226351D-01  0.78462761D-03 -0.61126566D-01 -0.12999648D-01
  0.96800716D-03  0.40038500D-02 -0.49718572D-02 -0.15270414D-03 -0.15949094D-01
 -0.19681894D-02 -0.24562559D-03  0.50636246D-03 -0.26073687D-03 -0.57040889D-04
 -0.10949562D-02  0.40486284D-04 -0.90155838D-02  0.11884970D-02  0.17214783D-02
  0.19311383D-01 -0.33641750D-02 -0.66464427D-02  0.77353682D-02 -0.20131613D-03
  0.14820079D-02 -0.62253504D-03 -0.32333115D-03  0.25037173D-04  0.14452773D-03
  0.49258864D-03 -0.13425393D-03 -0.15612560D-03  0.47740480D-03  0.59142410D-04
 -0.27745759D-03  0.14382340D-04 -0.72297315D-02 -0.13039119D-01 -0.19226173D-01
 -0.22694796D-01 -0.52601816D-02 -0.65294122D-04  0.21567073D-01 -0.44520018D-02
  0.41942791D-02  0.11892694D-01 -0.47869826D-02  0.55305227D-03  0.18033560D-02
 -0.17676375D-03  0.42394856D-03  0.77613400D-03 -0.24584613D-02  0.16823273D-02
  0.11084173D-01  0.79974318D-02 -0.20102689D-02  0.22314659D-04 -0.10171040D-03
  0.79395743D-04  0.11324246D-02  0.69493084D-03  0.12875269D-03 -0.11894276D-02
 -0.21451817D-02 -0.31630692D-02 -0.11575138D-01 -0.39120354D-02 -0.84104128D-04
  0.21214520D-01  0.25041393D-02  0.86575272D-02  0.11552238D-01  0.43314113D-02
  0.23357993D-02  0.17890348D-02  0.33610738D-03  0.45563234D-03  0.34200456D-03
 -0.25850098D-02  0.22430053D-02 -0.10554765D-01  0.78475147D-02 -0.86473170D-03
  0.84970385D-04 -0.19780503D-03  0.11283465D-03 -0.11048977D-02  0.70601581D-03
 -0.18016141D-03
MO    5     MO 0.0        OCC NO =    2.0000000  ORB. ENERGY =    0.000000
  0.31079464D+00  0.57927010D+00  0.98223386D+00  0.14865065D+01  0.18542997D+01
  0.15912650D+01  0.60936996D+00 -0.79521518D-03 -0.85321370D-02 -0.31451063D-01
 -0.91961065D-01 -0.11081755D+00  0.13349149D+00  0.11884378D+00  0.54421168D-01
  0.51240699D-02 -0.75708714D+00 -0.73411985D+00 -0.49523292D+00  0.30183390D+00
  0.29267735D+00  0.19743841D+00  0.38333917D+00  0.37171005D+00  0.25075340D+00
 -0.17057057D+00  0.62012519D-01  0.81693129D-01 -0.27823266D-01  0.54582052D-02
  0.11699243D-01 -0.88001512D-03  0.34471117D-04  0.20689872D-03 -0.20241703D-02
  0.11755666D-01 -0.97314961D-02  0.37602517D-03  0.31627070D-01 -0.29568787D-01
 -0.14012430D-02  0.38968255D-02 -0.24955824D-02 -0.16949015D-03  0.79527416D-02
 -0.37285251D-02 -0.20638212D-03  0.32400072D-03 -0.11761860D-03 -0.42332681D-04
  0.49703364D-03  0.24267434D-03  0.44991770D-02  0.12282541D-02  0.16188128D-02
 -0.93117563D-02 -0.22973853D-02 -0.37233771D-03 -0.41857746D-02 -0.13873769D-02
 -0.44841006D-02  0.10280763D-03  0.16780398D-03  0.18575817D-04 -0.76783777D-04
 -0.25838134D-03 -0.15555181D-03 -0.14036119D-03 -0.24503059D-03  0.99824363D-04
  0.37071252D-03 -0.66516843D-04 -0.67671753D-02 -0.12204879D-01 -0.17996088D-01
 -0.24973352D-01 -0.60567570D-02 -0.49936868D-04 -0.10072361D-01 -0.30079065D-02
  0.13066431D-02 -0.52657084D-02 -0.52594572D-02 -0.16103785D-02 -0.84686889D-03
 -0.28419423D-03  0.13924175D-03  0.25887584D-02 -0.30157467D-02  0.42698835D-03
 -0.44412234D-02 -0.33790105D-02 -0.56490354D-02  0.13341253D-03 -0.13013472D-03
 -0.32778075D-05 -0.50519454D-03 -0.31289616D-03 -0.15333490D-03  0.10020638D-01
  0.18072634D-01  0.26648088D-01  0.60056588D-02 -0.23320370D-02 -0.10255266D-03
 -0.10501192D-01 -0.70344167D-02  0.13703866D-01 -0.57145765D-02  0.14916662D-02
  0.33410662D-02 -0.87312699D-03  0.35048042D-03  0.22482588D-03 -0.90388929D-03
 -0.10703847D-02  0.19742740D-02  0.52333610D-02 -0.38512918D-02 -0.40402257D-02
  0.73141938D-04 -0.16160587D-03  0.88463936D-04  0.55066573D-03 -0.32594800D-03
 -0.13050471D-03
END DATA
 TOTAL ENERGY =    -76.466195734020 THE VIRIAL(-V/T)=   2.00599447
