 61
GAUSSIAN              5 MOL ORBITALS    126 PRIMITIVES        3 NUCLEI   B3LYP   B3LYP   B3LYP
  O    1    (CENTRE  1)   0.00000000  0.09448631  0.00815606  CHARGE =  8.0
  H    2    (CENTRE  2)   0.00000000 -1.44255835 -1.09730160  CHARGE =  1.0
  H    3    (CENTRE  3)   0.09448631  1.44255835 -1.09730160  CHARGE =  1.0
CENTRE ASSIGNMENTS    1  1  1  1  1  1  1  1  1  1  1  1  1  1  1  1  1  1  1  1
CENTRE ASSIGNMENTS    1  1  1  1  1  1  1  1  1  1  1  1  1  1  1  1  1  1  1  1
CENTRE ASSIGNMENTS    1  1  1  1  1  1  1  1  1  1  1  1  1  1  1  1  1  1  1  1
CENTRE ASSIGNMENTS    1  1  1  1  1  1  1  1  1  1  1  1  2  2  2  2  2  2  2  2
CENTRE ASSIGNMENTS    2  2  2  2  2  2  2  2  2  2  2  2  2  2  2  2  2  2  2  3
CENTRE ASSIGNMENTS    3  3  3  3  3  3  3  3  3  3  3  3  3  3  3  3  3  3  3  3
CENTRE ASSIGNMENTS    3  3  3  3  3  3
TYPE ASSIGNMENTS      1  1  1  1  1  1  1  1  1  1  1  1  1  1  1  1  2  2  2  3
TYPE ASSIGNMENTS      3  3  4  4  4  2  3  4  2  3  4  2  3  4  5  6  7  8  9 10
TYPE ASSIGNMENTS      5  6  7  8  9 10  5  6  7  8  9 10 11 12 13 17 14 15 18 19
TYPE ASSIGNMENTS     16 20 11 12 13 17 14 15 18 19 16 20  1  1  1  1  1  1  2  3
TYPE ASSIGNMENTS      4  2  3  4  2  3  4  5  6  7  8  9 10  5  6  7  8  9 10  1
TYPE ASSIGNMENTS      1  1  1  1  1  2  3  4  2  3  4  2  3  4  5  6  7  8  9 10
TYPE ASSIGNMENTS      5  6  7  8  9 10
EXPONENTS  0.1533000D+05 0.2299000D+04 0.5224000D+03 0.1473000D+03 0.4755000D+02
EXPONENTS  0.1676000D+02 0.6207000D+01 0.5224000D+03 0.1473000D+03 0.4755000D+02
EXPONENTS  0.1676000D+02 0.6207000D+01 0.6882000D+00 0.1752000D+01 0.2384000D+00
EXPONENTS  0.7376000D-01 0.3446000D+02 0.7749000D+01 0.2280000D+01 0.3446000D+02
EXPONENTS  0.7749000D+01 0.2280000D+01 0.3446000D+02 0.7749000D+01 0.2280000D+01
EXPONENTS  0.7156000D+00 0.7156000D+00 0.7156000D+00 0.2140000D+00 0.2140000D+00
EXPONENTS  0.2140000D+00 0.5974000D-01 0.5974000D-01 0.5974000D-01 0.2314000D+01
EXPONENTS  0.2314000D+01 0.2314000D+01 0.2314000D+01 0.2314000D+01 0.2314000D+01
EXPONENTS  0.6450000D+00 0.6450000D+00 0.6450000D+00 0.6450000D+00 0.6450000D+00
EXPONENTS  0.6450000D+00 0.2140000D+00 0.2140000D+00 0.2140000D+00 0.2140000D+00
EXPONENTS  0.2140000D+00 0.2140000D+00 0.1428000D+01 0.1428000D+01 0.1428000D+01
EXPONENTS  0.1428000D+01 0.1428000D+01 0.1428000D+01 0.1428000D+01 0.1428000D+01
EXPONENTS  0.1428000D+01 0.1428000D+01 0.5000000D+00 0.5000000D+00 0.5000000D+00
EXPONENTS  0.5000000D+00 0.5000000D+00 0.5000000D+00 0.5000000D+00 0.5000000D+00
EXPONENTS  0.5000000D+00 0.5000000D+00 0.3387000D+02 0.5095000D+01 0.1159000D+01
EXPONENTS  0.3258000D+00 0.1027000D+00 0.2526000D-01 0.1407000D+01 0.1407000D+01
EXPONENTS  0.1407000D+01 0.3880000D+00 0.3880000D+00 0.3880000D+00 0.1020000D+00
EXPONENTS  0.1020000D+00 0.1020000D+00 0.1057000D+01 0.1057000D+01 0.1057000D+01
EXPONENTS  0.1057000D+01 0.1057000D+01 0.1057000D+01 0.2470000D+00 0.2470000D+00
EXPONENTS  0.2470000D+00 0.2470000D+00 0.2470000D+00 0.2470000D+00 0.3387000D+02
EXPONENTS  0.5095000D+01 0.1159000D+01 0.3258000D+00 0.1027000D+00 0.2526000D-01
EXPONENTS  0.1407000D+01 0.1407000D+01 0.1407000D+01 0.3880000D+00 0.3880000D+00
EXPONENTS  0.3880000D+00 0.1020000D+00 0.1020000D+00 0.1020000D+00 0.1057000D+01
EXPONENTS  0.1057000D+01 0.1057000D+01 0.1057000D+01 0.1057000D+01 0.1057000D+01
EXPONENTS  0.2470000D+00 0.2470000D+00 0.2470000D+00 0.2470000D+00 0.2470000D+00
EXPONENTS  0.2470000D+00
MO    1     MO 0.0        OCC NO =    2.0000000  ORB. ENERGY =    0.000000
  0.34384763D+00  0.64087545D+00  0.10866944D+01  0.16445964D+01  0.20515044D+01
  0.17604960D+01  0.67417643D+00  0.55131944D-03  0.59152958D-02  0.21804894D-01
  0.63756231D-01  0.76829359D-01 -0.92549104D-01 -0.16062096D-01  0.10910192D-01
  0.46667967D-02  0.45099963D-01  0.43731793D-01  0.29501209D-01  0.32804179D-02
  0.31809019D-02  0.21458176D-02  0.10536475D+01  0.10216837D+01  0.68922177D+00
  0.10755672D-01  0.70257880D-02  0.22969954D+00  0.23659068D-02  0.31757764D-02
  0.26068710D-01  0.89123025D-04  0.54233173D-04  0.50877427D-03  0.34220151D-01
 -0.57989659D-02 -0.28421185D-01 -0.25874822D-02  0.20213977D-02  0.41496400D-02
  0.56934181D-02  0.25750702D-02 -0.82684883D-02 -0.88896127D-04  0.17436687D-03
 -0.37672211D-02 -0.53807858D-03  0.92532665D-03 -0.38724807D-03  0.12200703D-03
 -0.10877220D-03 -0.92232383D-03 -0.19760510D-05  0.56860191D-03  0.67528189D-03
  0.81898072D-03 -0.19227188D-02 -0.13501353D-01 -0.81305257D-03  0.21691304D-03
  0.11475508D-01  0.13489556D-02 -0.13421761D-04 -0.19254054D-03  0.42637885D-03
  0.73632546D-04 -0.30486051D-03 -0.35382373D-03 -0.33367263D-04  0.88248213D-03
 -0.92531281D-03 -0.88343004D-04 -0.24163374D-01 -0.43579640D-01 -0.64258154D-01
 -0.39747341D-01 -0.54549051D-02 -0.50251081D-04  0.64236844D-03 -0.21585586D-01
 -0.38115504D-02  0.38604922D-03 -0.84307756D-02 -0.42987442D-03  0.68993013D-04
 -0.81715221D-04  0.65890366D-03  0.31876441D-02 -0.52170827D-02  0.20294386D-02
  0.36074317D-03  0.30644944D-03 -0.66730813D-02  0.15398876D-03 -0.17287391D-03
  0.18885152D-04  0.34145618D-04  0.49825758D-04  0.12373983D-03 -0.27206713D-01
 -0.49068427D-01 -0.72351367D-01 -0.48238674D-01 -0.54556883D-02 -0.52124986D-04
  0.28016511D-02  0.29409353D-01 -0.93613532D-02  0.11917607D-02  0.10652699D-01
 -0.16861868D-02  0.83733013D-04  0.78490525D-04  0.74800879D-03  0.49530223D-02
 -0.67617038D-02  0.18086815D-02 -0.20495807D-02  0.12641966D-02  0.13164606D-01
 -0.33694601D-04 -0.13390344D-03  0.16759805D-03 -0.54876825D-04  0.15053745D-04
 -0.53629767D-03
MO    2     MO 0.0        OCC NO =    2.0000000  ORB. ENERGY =    0.000000
  0.36848972D+00  0.68680425D+00  0.11645731D+01  0.17624576D+01  0.21985269D+01
  0.18866632D+01  0.72249177D+00  0.25853021D-03  0.27738595D-02  0.10224968D-01
  0.29897208D-01  0.36027589D-01 -0.43399049D-01  0.16669164D-01 -0.47589597D-01
 -0.71018323D-02  0.17042868D+00  0.16525849D+00  0.11148240D+00  0.12204415D+00
  0.11834178D+00  0.79832663D-01 -0.11118660D+01 -0.10781360D+01 -0.72730416D+00
  0.37785295D-01  0.22893941D-01 -0.23931508D+00  0.56417540D-02  0.65164713D-03
 -0.29087390D-01  0.16336158D-03 -0.13807076D-05 -0.56551583D-03 -0.29532609D-01
 -0.34170055D-03  0.29874309D-01  0.30257332D-02 -0.10787035D-01 -0.17772636D-01
 -0.31003531D-02 -0.53784641D-02  0.84788172D-02 -0.20798108D-03 -0.22779262D-02
 -0.16756073D-03  0.63969687D-03 -0.10400352D-02  0.40033828D-03 -0.16196408D-03
 -0.35469451D-04  0.69584804D-03 -0.13243720D-02  0.82756142D-04 -0.96210091D-03
  0.19823919D-02 -0.84257365D-03  0.13085181D-01  0.19907241D-02  0.59430522D-03
 -0.10198879D-01 -0.18015951D-02 -0.15031826D-04  0.20820847D-03 -0.53589798D-03
 -0.27597471D-04  0.89404500D-04 -0.13342407D-03  0.72692949D-04 -0.71402992D-03
  0.17411180D-02  0.26850028D-03  0.13860075D-01  0.24997216D-01  0.36858380D-01
  0.30741638D-01  0.65314602D-02  0.12244551D-03  0.20849937D-02  0.12703604D-01
 -0.44914574D-02  0.11226821D-02  0.77596485D-02 -0.14982297D-02  0.16868326D-03
  0.32563489D-03 -0.68751654D-03 -0.12141725D-02  0.39096378D-02 -0.26954654D-02
  0.10639026D-02  0.67750056D-03  0.62106274D-03 -0.17911650D-03  0.25811021D-03
 -0.78993710D-04  0.11365849D-03  0.26219443D-04 -0.18754634D-03  0.22618614D-01
  0.40793602D-01  0.60150143D-01  0.47571082D-01  0.69671196D-02  0.62890212D-04
  0.96532275D-03 -0.20878499D-01  0.24146439D-02  0.64228024D-03 -0.92813144D-02
  0.17661358D-03  0.18020563D-03 -0.62878144D-04 -0.85327930D-03 -0.26875558D-02
  0.49848732D-02 -0.22973174D-02 -0.73617232D-04  0.44512948D-03 -0.59321136D-02
  0.16115259D-04  0.12675094D-03 -0.14286620D-03 -0.10871533D-03  0.96405927D-04
  0.55688883D-03
MO    3     MO 0.0        OCC NO =    2.0000000  ORB. ENERGY =    0.000000
 -0.44996318D-01 -0.83865738D-01 -0.14220614D+00 -0.21521388D+00 -0.26846235D+00
 -0.23038064D+00 -0.88223545D-01  0.30520359D-03  0.32746342D-02  0.12070918D-01
  0.35294657D-01  0.42531778D-01 -0.51234034D-01 -0.35296604D-01 -0.21939661D-01
 -0.13688873D-02  0.91793387D-01  0.89008708D-01  0.60044748D-01  0.14310732D+01
  0.13876596D+01  0.93610700D+00 -0.32757753D-01 -0.31764002D-01 -0.21427808D-01
  0.19569925D-01  0.29692829D+00 -0.91441494D-03  0.24536126D-02  0.28212083D-01
  0.17900906D-02  0.58954171D-04  0.28028770D-03  0.40554103D-04  0.34800793D-02
 -0.53684900D-02  0.18884107D-02  0.55888506D-02 -0.60137392D-02 -0.13280264D+00
  0.21427432D-02 -0.22789643D-02  0.13622109D-03  0.50615271D-03 -0.86461074D-03
 -0.18007033D-01  0.34144814D-03 -0.23038404D-03 -0.11106411D-03 -0.87746938D-04
  0.42082363D-04  0.93551239D-03 -0.66773280D-03  0.68068264D-02 -0.52736346D-03
  0.20398697D-02 -0.14957284D-01 -0.18683771D-02 -0.36671293D-04 -0.54631950D-02
  0.34504675D-02 -0.57297587D-03 -0.20772058D-04  0.11151480D-03 -0.12640536D-03
  0.48529102D-04 -0.88691267D-03 -0.38275186D-03  0.13787071D-04  0.55236828D-03
  0.76196794D-03 -0.29554963D-04 -0.39513851D-01 -0.71264857D-01 -0.10507999D+00
 -0.67318628D-01 -0.80400873D-02  0.13761060D-03  0.99301227D-03 -0.22237457D-01
 -0.25740410D-01  0.52247672D-03 -0.73668622D-02 -0.10173506D-01  0.64634634D-04
  0.24286311D-03 -0.20123442D-03  0.65358825D-02 -0.38914795D-02 -0.26444030D-02
  0.47978747D-03  0.40014119D-03 -0.19300825D-01  0.15646163D-03  0.31411271D-04
 -0.18787290D-03  0.59883744D-04  0.18587947D-04 -0.86510606D-03  0.33765798D-01
  0.60898008D-01  0.89794077D-01  0.68447020D-01  0.82848070D-02 -0.98222456D-04
 -0.12163356D-02 -0.17991415D-01  0.28259655D-01 -0.38810746D-03 -0.69598853D-02
  0.11382912D-01  0.58365828D-04  0.35040452D-03  0.15164181D-03 -0.70679169D-02
  0.27020363D-02  0.43658806D-02  0.12867121D-02 -0.14841946D-02 -0.21092800D-01
  0.50702321D-04 -0.28232789D-03  0.23162557D-03 -0.45514067D-04 -0.46398848D-07
 -0.22500598D-03
MO    4     MO 0.0        OCC NO =    2.0000000  ORB. ENERGY =    0.000000
 -0.32222806D-01 -0.60058012D-01 -0.10183680D+00 -0.15411917D+00 -0.19225151D+00
 -0.16498040D+00 -0.63178728D-01 -0.35987540D-03 -0.38612269D-02 -0.14233209D-01
 -0.41617069D-01 -0.50150592D-01  0.60411703D-01  0.33377273D-01  0.20827169D-01
  0.17574881D-02  0.17440764D+01  0.16911675D+01  0.11408516D+01 -0.41915388D-01
 -0.40643827D-01 -0.27418086D-01  0.19212565D+00  0.18629725D+00  0.12567502D+00
  0.39371466D+00 -0.10243231D-01  0.41692963D-01  0.64701432D-01 -0.19541347D-02
  0.68113612D-02  0.20754516D-02 -0.65657858D-04  0.16798173D-03  0.20494577D-02
  0.41679391D-02 -0.62173969D-02  0.45241624D-02 -0.71604519D-01  0.78288112D-03
  0.64294319D-04  0.14891284D-02 -0.15534227D-02 -0.96697018D-03 -0.18247421D-01
  0.72985601D-03 -0.55915001D-05  0.98901886D-04 -0.93310386D-04 -0.29933731D-03
 -0.12077168D-02  0.58042752D-04 -0.10339294D-01 -0.71434283D-03  0.96460741D-03
  0.21737012D-01  0.25453145D-02 -0.25084253D-02  0.92808695D-02 -0.40228600D-03
 -0.38539696D-03 -0.15741621D-02 -0.36287492D-03 -0.19045017D-04  0.12759152D-04
  0.56192000D-03  0.73101417D-04 -0.44825377D-04  0.52670476D-03 -0.15966365D-04
  0.65479217D-05  0.10991266D-02  0.14303883D-02  0.25797642D-02  0.38038608D-02
 -0.19706201D-02 -0.14283911D-02 -0.27517294D-04  0.22042250D-01  0.11977951D-02
  0.39743804D-02  0.12037588D-01 -0.11613668D-02  0.10502926D-02  0.19065231D-02
 -0.17870780D-03  0.14563442D-03 -0.63621894D-04 -0.69914499D-03  0.76276689D-03
  0.11376540D-01  0.78682353D-02  0.92378921D-03  0.41154919D-04 -0.91330505D-04
  0.50175586D-04  0.11468472D-02  0.62991017D-03  0.28393334D-04  0.25580264D-02
  0.46135059D-02  0.68026117D-02 -0.53023079D-03 -0.12196532D-02 -0.26996219D-04
  0.26277115D-01 -0.35731607D-02  0.55401709D-02  0.14393088D-01  0.71728130D-04
  0.14185973D-02  0.21664960D-02  0.30398941D-04  0.16739229D-03 -0.12507358D-02
  0.23745363D-03  0.10132822D-02 -0.12627853D-01  0.99618666D-02 -0.24285489D-02
 -0.61093048D-04  0.99797446D-06  0.60095074D-04 -0.13639846D-02  0.94924115D-03
 -0.93476110D-04
MO    5     MO 0.0        OCC NO =    2.0000000  ORB. ENERGY =    0.000000
  0.47033453D-01  0.87662624D-01  0.14864430D+00  0.22495734D+00  0.28061655D+00
  0.24081075D+00  0.92217723D-01 -0.15624536D-02 -0.16764102D-01 -0.61795635D-01
 -0.18068681D+00 -0.21773640D+00  0.26228656D+00  0.16721859D+00  0.90477168D-01
  0.76678884D-02 -0.35430947D+00 -0.34356100D+00 -0.23176422D+00  0.31480888D+00
  0.30525871D+00  0.20592572D+00  0.46183239D+00  0.44782207D+00  0.30209812D+00
 -0.79934127D-01  0.63902677D-01  0.98247310D-01 -0.13298773D-01  0.60332774D-02
  0.16475191D-01 -0.41970942D-03  0.79092861D-04  0.30460183D-03 -0.79958457D-02
  0.19649828D-01 -0.11653982D-01  0.23702750D-02  0.13480443D-01 -0.31236071D-01
 -0.31644562D-02  0.60101592D-02 -0.28457030D-02  0.92020882D-03  0.34931703D-02
 -0.25715987D-02 -0.15643761D-03  0.32229026D-03 -0.16585265D-03  0.79150580D-04
  0.24769209D-03  0.25504992D-03  0.19508502D-02  0.11984949D-02  0.24178622D-02
 -0.36342629D-02 -0.31675744D-02  0.18732892D-03 -0.22182877D-02 -0.42791032D-03
 -0.74409156D-02 -0.36449701D-03  0.78566474D-04  0.34536319D-04 -0.14449505D-03
 -0.13708515D-03  0.80231632D-04 -0.85472755D-04 -0.98614274D-04 -0.18384059D-03
  0.51895791D-03 -0.14899550D-03  0.44055611D-03  0.79456110D-03  0.11715799D-02
 -0.18942413D-01 -0.75891198D-02 -0.95394477D-04 -0.45761858D-02  0.56176222D-02
  0.91152850D-02 -0.25426665D-02 -0.44102035D-02  0.51923050D-03 -0.40013670D-03
 -0.46331945D-03  0.19962121D-03  0.87456609D-03 -0.21557143D-02  0.12811482D-02
 -0.24106781D-02 -0.16102283D-02 -0.71514021D-03  0.16315983D-03 -0.22184044D-03
  0.58680611D-04 -0.24428037D-03 -0.11922976D-03 -0.16527255D-03  0.17590102D-01
  0.31724474D-01  0.46777718D-01  0.89024258D-02 -0.43015424D-02 -0.14326586D-03
 -0.67867453D-02 -0.14945225D-01  0.23677096D-01 -0.29910223D-02  0.17617768D-02
  0.47756532D-02 -0.41866304D-03  0.57535750D-03  0.26059985D-03 -0.21515836D-02
 -0.82384438D-03  0.29754279D-02  0.29957723D-02 -0.27591813D-02 -0.86297231D-02
  0.16102057D-03 -0.26175129D-03  0.10073072D-03  0.23949695D-03 -0.18199210D-03
  0.34821656D-04
END DATA
 TOTAL ENERGY =    -76.463283525861 THE VIRIAL(-V/T)=   2.00582673
