 61
GAUSSIAN              5 MOL ORBITALS    126 PRIMITIVES        3 NUCLEI   B3LYP   B3LYP   B3LYP
  O    1    (CENTRE  1)   0.00000000 -0.09448631  0.00815606  CHARGE =  8.0
  H    2    (CENTRE  2)   0.00000000 -1.44255835 -1.09730160  CHARGE =  1.0
  H    3    (CENTRE  3)   0.09448631  1.44255835 -1.09730160  CHARGE =  1.0
CENTRE ASSIGNMENTS    1  1  1  1  1  1  1  1  1  1  1  1  1  1  1  1  1  1  1  1
CENTRE ASSIGNMENTS    1  1  1  1  1  1  1  1  1  1  1  1  1  1  1  1  1  1  1  1
CENTRE ASSIGNMENTS    1  1  1  1  1  1  1  1  1  1  1  1  1  1  1  1  1  1  1  1
CENTRE ASSIGNMENTS    1  1  1  1  1  1  1  1  1  1  1  1  2  2  2  2  2  2  2  2
CENTRE ASSIGNMENTS    2  2  2  2  2  2  2  2  2  2  2  2  2  2  2  2  2  2  2  3
CENTRE ASSIGNMENTS    3  3  3  3  3  3  3  3  3  3  3  3  3  3  3  3  3  3  3  3
CENTRE ASSIGNMENTS    3  3  3  3  3  3
TYPE ASSIGNMENTS      1  1  1  1  1  1  1  1  1  1  1  1  1  1  1  1  2  2  2  3
TYPE ASSIGNMENTS      3  3  4  4  4  2  3  4  2  3  4  2  3  4  5  6  7  8  9 10
TYPE ASSIGNMENTS      5  6  7  8  9 10  5  6  7  8  9 10 11 12 13 17 14 15 18 19
TYPE ASSIGNMENTS     16 20 11 12 13 17 14 15 18 19 16 20  1  1  1  1  1  1  2  3
TYPE ASSIGNMENTS      4  2  3  4  2  3  4  5  6  7  8  9 10  5  6  7  8  9 10  1
TYPE ASSIGNMENTS      1  1  1  1  1  2  3  4  2  3  4  2  3  4  5  6  7  8  9 10
TYPE ASSIGNMENTS      5  6  7  8  9 10
EXPONENTS  0.1533000D+05 0.2299000D+04 0.5224000D+03 0.1473000D+03 0.4755000D+02
EXPONENTS  0.1676000D+02 0.6207000D+01 0.5224000D+03 0.1473000D+03 0.4755000D+02
EXPONENTS  0.1676000D+02 0.6207000D+01 0.6882000D+00 0.1752000D+01 0.2384000D+00
EXPONENTS  0.7376000D-01 0.3446000D+02 0.7749000D+01 0.2280000D+01 0.3446000D+02
EXPONENTS  0.7749000D+01 0.2280000D+01 0.3446000D+02 0.7749000D+01 0.2280000D+01
EXPONENTS  0.7156000D+00 0.7156000D+00 0.7156000D+00 0.2140000D+00 0.2140000D+00
EXPONENTS  0.2140000D+00 0.5974000D-01 0.5974000D-01 0.5974000D-01 0.2314000D+01
EXPONENTS  0.2314000D+01 0.2314000D+01 0.2314000D+01 0.2314000D+01 0.2314000D+01
EXPONENTS  0.6450000D+00 0.6450000D+00 0.6450000D+00 0.6450000D+00 0.6450000D+00
EXPONENTS  0.6450000D+00 0.2140000D+00 0.2140000D+00 0.2140000D+00 0.2140000D+00
EXPONENTS  0.2140000D+00 0.2140000D+00 0.1428000D+01 0.1428000D+01 0.1428000D+01
EXPONENTS  0.1428000D+01 0.1428000D+01 0.1428000D+01 0.1428000D+01 0.1428000D+01
EXPONENTS  0.1428000D+01 0.1428000D+01 0.5000000D+00 0.5000000D+00 0.5000000D+00
EXPONENTS  0.5000000D+00 0.5000000D+00 0.5000000D+00 0.5000000D+00 0.5000000D+00
EXPONENTS  0.5000000D+00 0.5000000D+00 0.3387000D+02 0.5095000D+01 0.1159000D+01
EXPONENTS  0.3258000D+00 0.1027000D+00 0.2526000D-01 0.1407000D+01 0.1407000D+01
EXPONENTS  0.1407000D+01 0.3880000D+00 0.3880000D+00 0.3880000D+00 0.1020000D+00
EXPONENTS  0.1020000D+00 0.1020000D+00 0.1057000D+01 0.1057000D+01 0.1057000D+01
EXPONENTS  0.1057000D+01 0.1057000D+01 0.1057000D+01 0.2470000D+00 0.2470000D+00
EXPONENTS  0.2470000D+00 0.2470000D+00 0.2470000D+00 0.2470000D+00 0.3387000D+02
EXPONENTS  0.5095000D+01 0.1159000D+01 0.3258000D+00 0.1027000D+00 0.2526000D-01
EXPONENTS  0.1407000D+01 0.1407000D+01 0.1407000D+01 0.3880000D+00 0.3880000D+00
EXPONENTS  0.3880000D+00 0.1020000D+00 0.1020000D+00 0.1020000D+00 0.1057000D+01
EXPONENTS  0.1057000D+01 0.1057000D+01 0.1057000D+01 0.1057000D+01 0.1057000D+01
EXPONENTS  0.2470000D+00 0.2470000D+00 0.2470000D+00 0.2470000D+00 0.2470000D+00
EXPONENTS  0.2470000D+00
MO    1     MO 0.0        OCC NO =    2.0000000  ORB. ENERGY =    0.000000
 -0.26349064D+00 -0.49110323D+00 -0.83273454D+00 -0.12602552D+01 -0.15720690D+01
 -0.13490691D+01 -0.51662179D+00  0.16843616D-03  0.18072095D-02  0.66617144D-02
  0.19478462D-01  0.23472494D-01 -0.28275107D-01 -0.48199543D-01  0.16701177D-01
  0.40200322D-02  0.10889717D+01  0.10559362D+01  0.71232834D+00 -0.10847083D+00
 -0.10518022D+00 -0.70953953D-01  0.85504718D+00  0.82910814D+00  0.55931146D+00
  0.24603201D+00 -0.25717320D-01  0.18584818D+00  0.40754389D-01 -0.43539456D-02
  0.22388365D-01  0.13181454D-02 -0.76740360D-04  0.46027275D-03  0.27954063D-01
 -0.43173068D-02 -0.23636756D-01 -0.50191355D-02 -0.42248182D-01  0.23907251D-02
  0.40664365D-02  0.27316450D-02 -0.67980814D-02  0.51295650D-03 -0.10854089D-01
  0.28550452D-02 -0.39449414D-03  0.73568140D-03 -0.34118727D-03  0.25636839D-03
 -0.76860214D-03  0.53212126D-03 -0.61791954D-02 -0.12516304D-02  0.50390982D-03
  0.13367552D-01  0.26202228D-02 -0.12221123D-01  0.51700340D-02  0.11346684D-02
  0.10709393D-01  0.26357799D-02 -0.22453984D-03  0.14621001D-03  0.44479496D-03
  0.41207979D-03  0.32794973D-03 -0.42048236D-04  0.26153974D-03 -0.76657977D-03
 -0.12923366D-02 -0.72561603D-03 -0.16566319D-01 -0.29878038D-01 -0.44055150D-01
 -0.29663360D-01 -0.34916136D-02 -0.39573842D-04  0.16645163D-01 -0.17985677D-01
 -0.16088286D-02  0.90577485D-02 -0.65272459D-02  0.10452998D-02  0.13685657D-02
 -0.45182984D-04  0.72021686D-03  0.16408275D-02 -0.38813104D-02  0.22404828D-02
  0.80210998D-02  0.63979312D-02 -0.34876695D-02 -0.35750435D-04 -0.12664216D-03
  0.16239259D-03  0.85549923D-03  0.61817023D-03  0.51377565D-03 -0.18039609D-01
 -0.32535179D-01 -0.47973102D-01 -0.32439501D-01 -0.51250480D-02 -0.56644700D-04
  0.14765825D-01  0.14767160D-01 -0.18824080D-02  0.79859133D-02  0.64203140D-02
 -0.25800828D-03  0.12117122D-02  0.92455810D-04  0.53600335D-03  0.15101113D-02
 -0.32165703D-02  0.17064590D-02 -0.78035738D-02  0.51913308D-02  0.32645679D-02
  0.10115292D-03 -0.13707346D-03  0.35920540D-04 -0.75418027D-03  0.40786220D-03
 -0.81357753D-04
MO    2     MO 0.0        OCC NO =    2.0000000  ORB. ENERGY =    0.000000
 -0.13272979D+00 -0.24738650D+00 -0.41947858D+00 -0.63483622D+00 -0.79190815D+00
 -0.67957501D+00 -0.26024112D+00 -0.45795481D-03 -0.49135546D-02 -0.18112287D-01
 -0.52959266D-01 -0.63818490D-01  0.76876134D-01  0.31223857D-01 -0.17166167D-01
 -0.54335820D-02  0.99141262D+00  0.96133675D+00  0.64851209D+00  0.58023255D-01
  0.56263040D-01  0.37954714D-01 -0.11201901D+01 -0.10862076D+01 -0.73274920D+00
  0.22354155D+00  0.17464908D-01 -0.24359272D+00  0.36272719D-01  0.37235713D-02
 -0.27713963D-01  0.11447785D-02  0.32030139D-04 -0.52279491D-03 -0.35668239D-01
  0.60779360D-02  0.29590303D-01  0.43314289D-03 -0.44213241D-01 -0.96802943D-03
 -0.53958878D-02 -0.32549621D-02  0.86508499D-02  0.91253224D-03 -0.11172913D-01
 -0.42532953D-02  0.62441752D-03 -0.10306799D-02  0.40626242D-03  0.96929355D-04
 -0.66639411D-03 -0.86929182D-03 -0.62670507D-02  0.66539367D-03 -0.44273719D-03
  0.12472790D-01 -0.12082771D-02  0.13946048D-01  0.63283627D-02 -0.78790394D-03
 -0.12617837D-01 -0.94483447D-03 -0.21655875D-03 -0.22273890D-03 -0.49255066D-03
  0.25516684D-03 -0.31430340D-03  0.18533218D-03  0.39450941D-03  0.98252009D-03
  0.12923198D-02 -0.64464116D-03  0.26252767D-01  0.47347947D-01  0.69814520D-01
  0.46966496D-01  0.54714011D-02  0.63229401D-04  0.15043346D-01  0.28490382D-01
  0.71995574D-02  0.81164346D-02  0.10337796D-01  0.80202254D-03  0.12072768D-02
  0.45382487D-04 -0.82074696D-03 -0.42030469D-02  0.64191044D-02 -0.22160575D-02
  0.71804719D-02  0.56933338D-02  0.10718773D-01  0.42266992D-04  0.13527572D-03
 -0.17754271D-03  0.77069435D-03  0.51458795D-03 -0.62310067D-03  0.27373986D-01
  0.49370111D-01  0.72796199D-01  0.46803634D-01  0.68247075D-02  0.60968250D-04
  0.10933469D-01 -0.23804134D-01  0.50146316D-02  0.61444817D-02 -0.98069679D-02
  0.11570393D-02  0.10528245D-02 -0.15660471D-03 -0.66403656D-03 -0.38157199D-02
  0.57696086D-02 -0.19538888D-02 -0.52419850D-02  0.38769300D-02 -0.75921318D-02
 -0.22280263D-03  0.22547839D-03 -0.26757583D-05 -0.59403579D-03  0.32342672D-03
  0.37478590D-04
MO    3     MO 0.0        OCC NO =    2.0000000  ORB. ENERGY =    0.000000
  0.41362285D+00  0.77092498D+00  0.13072116D+01  0.19783258D+01  0.24678055D+01
  0.21177443D+01  0.81098356D+00  0.41298025D-03  0.44310071D-02  0.16333526D-01
  0.47758273D-01  0.57551042D-01 -0.69326328D-01  0.61052147D-02 -0.12947893D-01
 -0.35859151D-03  0.10154665D+01  0.98466089D+00  0.66424642D+00  0.65059780D-01
  0.63086102D-01  0.42557512D-01  0.14683472D+00  0.14238029D+00  0.96048901D-01
  0.22904764D+00  0.99959737D-02  0.33028142D-01  0.37668044D-01 -0.46481799D-03
  0.30395653D-02  0.12067647D-02 -0.45985319D-04  0.76078774D-04  0.73512812D-02
 -0.27150477D-02 -0.46362335D-02 -0.28957160D-02 -0.41312349D-01 -0.75118941D-02
  0.20869925D-02 -0.74936731D-03 -0.13376252D-02  0.42940908D-03 -0.10389477D-01
  0.79773329D-03 -0.28235467D-04  0.82039153D-04 -0.53803687D-04  0.17628616D-03
 -0.69270371D-03  0.37710921D-03 -0.59601254D-02 -0.62212961D-04  0.24177214D-03
  0.12572838D-01  0.14558617D-02 -0.25945676D-02  0.53075382D-02 -0.12692229D-02
  0.18692511D-02  0.14209018D-02 -0.19819379D-03  0.17319578D-04  0.18313142D-04
  0.31652972D-03  0.10872364D-03 -0.31384771D-03  0.27805166D-03 -0.16068238D-03
  0.25890828D-03 -0.60218560D-03 -0.93734255D-02 -0.16905359D-01 -0.24926942D-01
 -0.14324387D-01 -0.98204522D-03  0.77353139D-05  0.15475404D-01 -0.10434642D-01
 -0.71371809D-02  0.83991842D-02 -0.32006548D-02 -0.19788953D-02  0.12615941D-02
 -0.33877055D-04  0.67079103D-04  0.26727865D-02 -0.23720201D-02 -0.30076640D-03
  0.74345256D-02  0.59195345D-02 -0.77041895D-02 -0.73824713D-05 -0.19968880D-04
  0.27351352D-04  0.79562035D-03  0.55666671D-03  0.35894991D-04 -0.34177981D-02
 -0.61641396D-02 -0.90890202D-02 -0.16534768D-02  0.71367132D-03  0.12647074D-04
  0.13016493D-01  0.38650523D-02 -0.95382241D-03  0.70161094D-02  0.29317216D-03
  0.45455920D-03  0.11035698D-02 -0.11765035D-03  0.13301905D-03  0.20820073D-03
 -0.61758367D-03  0.40938294D-03 -0.67610349D-02  0.46348566D-02  0.11542150D-02
 -0.46517839D-04  0.38944945D-04  0.75728943D-05 -0.66060896D-03  0.35833944D-03
 -0.12015256D-03
MO    4     MO 0.0        OCC NO =    2.0000000  ORB. ENERGY =    0.000000
 -0.32126276D-01 -0.59878096D-01 -0.10153173D+00 -0.15365747D+00 -0.19167559D+00
 -0.16448617D+00 -0.62989464D-01 -0.10397401D-03 -0.11155729D-02 -0.41122118D-02
 -0.12023866D-01 -0.14489343D-01  0.17453950D-01  0.53915324D-02  0.17063023D-01
  0.15897294D-02 -0.22318727D-01 -0.21641657D-01 -0.14599334D-01  0.14604144D+01
  0.14161107D+01  0.95529993D+00  0.18518932D+00  0.17957135D+00  0.12113777D+00
 -0.56172077D-02  0.30230080D+00  0.33906320D-01 -0.14552779D-02  0.28423850D-01
  0.14642298D-02 -0.66202137D-04  0.28564674D-03  0.24254590D-04  0.42044850D-02
  0.18776273D-02 -0.60821123D-02  0.54874684D-02 -0.10915677D-02 -0.13703687D+00
 -0.95636384D-03  0.23588420D-02 -0.14024782D-02  0.89217027D-03  0.10679167D-03
 -0.17859716D-01 -0.45234730D-03  0.39532852D-03  0.57018778D-04  0.57341402D-06
  0.38737171D-04  0.10936141D-02 -0.91324706D-04  0.68168841D-02  0.32848865D-03
  0.89422147D-03 -0.15247125D-01 -0.85553387D-03 -0.62024735D-03 -0.52035268D-02
 -0.12993207D-03 -0.81921530D-03 -0.30618962D-04  0.15440943D-03  0.25797935D-03
  0.96486100D-04 -0.81915933D-03  0.41792784D-03 -0.46292129D-05  0.35593103D-03
 -0.11918659D-02 -0.15969098D-03 -0.40018303D-01 -0.72174658D-01 -0.10642149D+00
 -0.77377714D-01 -0.87420948D-02  0.10447188D-03 -0.47888423D-03 -0.24098115D-01
 -0.31717161D-01 -0.31908327D-03 -0.83485407D-02 -0.11839257D-01 -0.63514800D-04
  0.42433271D-03 -0.13641980D-04  0.78100296D-02 -0.35343979D-02 -0.42756317D-02
 -0.27890284D-03 -0.15682354D-03 -0.23113795D-01 -0.83412326D-04  0.29538372D-03
 -0.21197139D-03 -0.21055616D-04 -0.26856185D-04 -0.83298510D-04  0.35303914D-01
  0.63672062D-01  0.93884418D-01  0.61704519D-01  0.76369361D-02 -0.14331637D-03
 -0.23457144D-02 -0.17904765D-01  0.24239083D-01 -0.10340622D-02 -0.61713909D-02
  0.10006772D-01 -0.72968357D-04  0.22998374D-03  0.30107492D-03 -0.61046112D-02
  0.32332653D-02  0.28713459D-02  0.17626950D-02 -0.16098187D-02 -0.18475501D-01
 -0.13815929D-03 -0.48570145D-04  0.18672944D-03  0.83301505D-04 -0.78273659D-04
 -0.90331949D-03
MO    5     MO 0.0        OCC NO =    2.0000000  ORB. ENERGY =    0.000000
 -0.11505552D-01 -0.21444458D-01 -0.36362092D-01 -0.55030160D-01 -0.68645787D-01
 -0.58908298D-01 -0.22558748D-01 -0.16170715D-02 -0.17350116D-01 -0.63955794D-01
 -0.18700299D+00 -0.22534769D+00  0.27145518D+00  0.16580606D+00  0.10224616D+00
  0.93625385D-02  0.80792942D-01  0.78341976D-01  0.52849034D-01 -0.10839339D+00
 -0.10510512D+00 -0.70903294D-01  0.74567315D+00  0.72305213D+00  0.48776669D+00
  0.18701341D-01 -0.21609376D-01  0.15898011D+00  0.32108067D-02 -0.22644037D-02
  0.23739507D-01  0.11624523D-03 -0.36845345D-04  0.45518738D-03 -0.25747232D-03
  0.19973015D-01 -0.19715542D-01  0.59704520D-03 -0.27869957D-02  0.11088150D-01
 -0.23332259D-02  0.74057511D-02 -0.50725252D-02  0.69449712D-03 -0.96531356D-03
  0.40631062D-03 -0.32964287D-03  0.59064726D-03 -0.26100439D-03  0.79623612D-04
 -0.83670198D-04  0.32389699D-04 -0.52055405D-03 -0.29310570D-03  0.27916768D-02
  0.15409131D-02  0.89231736D-03 -0.33509825D-02  0.20749028D-04 -0.13000260D-04
 -0.50240478D-02  0.66298430D-04 -0.27320254D-04  0.32148939D-04  0.14241349D-05
  0.49151393D-04 -0.16050585D-03 -0.49217249D-04  0.32809370D-04  0.64059032D-04
  0.44944844D-04 -0.85843836D-04  0.79219019D-02  0.14287476D-01  0.21066875D-01
 -0.10617992D-01 -0.68422797D-02 -0.14474890D-03  0.12012973D-02  0.75996939D-02
  0.19699695D-01  0.64906527D-03 -0.47496802D-02  0.34733795D-02  0.10562440D-03
 -0.53153697D-03  0.46732085D-03 -0.78476785D-03 -0.23142707D-02  0.30990386D-02
  0.54924196D-03  0.50641487D-03  0.46431813D-02  0.13036766D-03 -0.24935696D-03
  0.11898930D-03  0.60797817D-04  0.66456890D-04  0.91555437D-04  0.14118899D-02
  0.25464015D-02  0.37546676D-02 -0.18433450D-01 -0.80899118D-02 -0.13747139D-03
  0.76210745D-03 -0.47115486D-02  0.13086460D-01  0.87817156D-03  0.54268912D-02
  0.21587170D-02  0.12694358D-03  0.56788160D-03  0.40740066D-03  0.41581079D-03
 -0.27112572D-02  0.22954464D-02 -0.89853827D-03  0.32358536D-03 -0.13042372D-02
  0.18376719D-03 -0.28875516D-03  0.10498797D-03 -0.10648173D-03  0.47708783D-04
  0.85831653D-05
END DATA
 TOTAL ENERGY =    -76.463084508206 THE VIRIAL(-V/T)=   2.00581126
