 61
GAUSSIAN              5 MOL ORBITALS    126 PRIMITIVES        3 NUCLEI   B3LYP   B3LYP   B3LYP   B3LYP
  O    1    (CENTRE  1)   0.00000000 -0.09448631  0.00815606  CHARGE =  8.0
  H    2    (CENTRE  2)   0.00000000 -1.44255835 -1.09730160  CHARGE =  1.0
  H    3    (CENTRE  3)  -0.09448631  1.44255835 -1.09730160  CHARGE =  1.0
CENTRE ASSIGNMENTS    1  1  1  1  1  1  1  1  1  1  1  1  1  1  1  1  1  1  1  1
CENTRE ASSIGNMENTS    1  1  1  1  1  1  1  1  1  1  1  1  1  1  1  1  1  1  1  1
CENTRE ASSIGNMENTS    1  1  1  1  1  1  1  1  1  1  1  1  1  1  1  1  1  1  1  1
CENTRE ASSIGNMENTS    1  1  1  1  1  1  1  1  1  1  1  1  2  2  2  2  2  2  2  2
CENTRE ASSIGNMENTS    2  2  2  2  2  2  2  2  2  2  2  2  2  2  2  2  2  2  2  3
CENTRE ASSIGNMENTS    3  3  3  3  3  3  3  3  3  3  3  3  3  3  3  3  3  3  3  3
CENTRE ASSIGNMENTS    3  3  3  3  3  3
TYPE ASSIGNMENTS      1  1  1  1  1  1  1  1  1  1  1  1  1  1  1  1  2  2  2  3
TYPE ASSIGNMENTS      3  3  4  4  4  2  3  4  2  3  4  2  3  4  5  6  7  8  9 10
TYPE ASSIGNMENTS      5  6  7  8  9 10  5  6  7  8  9 10 11 12 13 17 14 15 18 19
TYPE ASSIGNMENTS     16 20 11 12 13 17 14 15 18 19 16 20  1  1  1  1  1  1  2  3
TYPE ASSIGNMENTS      4  2  3  4  2  3  4  5  6  7  8  9 10  5  6  7  8  9 10  1
TYPE ASSIGNMENTS      1  1  1  1  1  2  3  4  2  3  4  2  3  4  5  6  7  8  9 10
TYPE ASSIGNMENTS      5  6  7  8  9 10
EXPONENTS  0.1533000D+05 0.2299000D+04 0.5224000D+03 0.1473000D+03 0.4755000D+02
EXPONENTS  0.1676000D+02 0.6207000D+01 0.5224000D+03 0.1473000D+03 0.4755000D+02
EXPONENTS  0.1676000D+02 0.6207000D+01 0.6882000D+00 0.1752000D+01 0.2384000D+00
EXPONENTS  0.7376000D-01 0.3446000D+02 0.7749000D+01 0.2280000D+01 0.3446000D+02
EXPONENTS  0.7749000D+01 0.2280000D+01 0.3446000D+02 0.7749000D+01 0.2280000D+01
EXPONENTS  0.7156000D+00 0.7156000D+00 0.7156000D+00 0.2140000D+00 0.2140000D+00
EXPONENTS  0.2140000D+00 0.5974000D-01 0.5974000D-01 0.5974000D-01 0.2314000D+01
EXPONENTS  0.2314000D+01 0.2314000D+01 0.2314000D+01 0.2314000D+01 0.2314000D+01
EXPONENTS  0.6450000D+00 0.6450000D+00 0.6450000D+00 0.6450000D+00 0.6450000D+00
EXPONENTS  0.6450000D+00 0.2140000D+00 0.2140000D+00 0.2140000D+00 0.2140000D+00
EXPONENTS  0.2140000D+00 0.2140000D+00 0.1428000D+01 0.1428000D+01 0.1428000D+01
EXPONENTS  0.1428000D+01 0.1428000D+01 0.1428000D+01 0.1428000D+01 0.1428000D+01
EXPONENTS  0.1428000D+01 0.1428000D+01 0.5000000D+00 0.5000000D+00 0.5000000D+00
EXPONENTS  0.5000000D+00 0.5000000D+00 0.5000000D+00 0.5000000D+00 0.5000000D+00
EXPONENTS  0.5000000D+00 0.5000000D+00 0.3387000D+02 0.5095000D+01 0.1159000D+01
EXPONENTS  0.3258000D+00 0.1027000D+00 0.2526000D-01 0.1407000D+01 0.1407000D+01
EXPONENTS  0.1407000D+01 0.3880000D+00 0.3880000D+00 0.3880000D+00 0.1020000D+00
EXPONENTS  0.1020000D+00 0.1020000D+00 0.1057000D+01 0.1057000D+01 0.1057000D+01
EXPONENTS  0.1057000D+01 0.1057000D+01 0.1057000D+01 0.2470000D+00 0.2470000D+00
EXPONENTS  0.2470000D+00 0.2470000D+00 0.2470000D+00 0.2470000D+00 0.3387000D+02
EXPONENTS  0.5095000D+01 0.1159000D+01 0.3258000D+00 0.1027000D+00 0.2526000D-01
EXPONENTS  0.1407000D+01 0.1407000D+01 0.1407000D+01 0.3880000D+00 0.3880000D+00
EXPONENTS  0.3880000D+00 0.1020000D+00 0.1020000D+00 0.1020000D+00 0.1057000D+01
EXPONENTS  0.1057000D+01 0.1057000D+01 0.1057000D+01 0.1057000D+01 0.1057000D+01
EXPONENTS  0.2470000D+00 0.2470000D+00 0.2470000D+00 0.2470000D+00 0.2470000D+00
EXPONENTS  0.2470000D+00
MO    1     MO 0.0        OCC NO =    2.0000000  ORB. ENERGY =    0.000000
  0.49437858D+00  0.92144038D+00  0.15624316D+01  0.23645742D+01  0.29496199D+01
  0.25312127D+01  0.96931999D+00  0.99039560D-04  0.10626295D-02  0.39170524D-02
  0.11453231D-01  0.13801701D-01 -0.16625611D-01  0.47995772D-01 -0.45058803D-02
 -0.59096570D-03  0.23809851D+00  0.23087547D+00  0.15574723D+00  0.90726350D-01
  0.87974041D-01  0.59346769D-01 -0.12011071D+00 -0.11646698D+00 -0.78567939D-01
  0.53901012D-01  0.17347566D-01 -0.25650415D-01  0.89292602D-02  0.14256714D-02
 -0.36021354D-02  0.28881253D-03  0.70731214D-05 -0.79280381D-04 -0.51771887D-02
  0.18354918D-02  0.33416969D-02 -0.12821533D-02 -0.92833540D-02 -0.52510084D-02
 -0.25422494D-03 -0.73905421D-03  0.99327915D-03  0.17624038D-03 -0.24694929D-02
 -0.29049347D-03  0.59793424D-04 -0.12466122D-03  0.64867793D-04  0.61121297D-04
 -0.17398587D-03  0.11523670D-03 -0.13556466D-02  0.59626545D-03  0.25520379D-03
  0.28565124D-02 -0.33228611D-03  0.26854082D-02  0.12104273D-02 -0.14565103D-02
 -0.34510196D-02  0.53352884D-03 -0.58561889D-04 -0.29665305D-04 -0.16837890D-03
  0.10735257D-03 -0.86705975D-04 -0.24061701D-03  0.68333094D-04  0.17570189D-03
  0.74575370D-03 -0.20343630D-03 -0.72001916D-03 -0.12985842D-02 -0.19147617D-02
 -0.23870298D-02 -0.41408457D-03  0.39064892D-06  0.36495747D-02 -0.10878499D-02
 -0.33285152D-02  0.19855737D-02 -0.84178586D-03 -0.18619216D-02  0.29989685D-03
 -0.65167945D-04 -0.18766610D-03  0.16624763D-02 -0.83464971D-03 -0.82782663D-03
  0.17619614D-02  0.13970464D-02 -0.50207021D-02  0.23714198D-04  0.10103472D-04
 -0.33817670D-04  0.18693636D-03  0.13535597D-03 -0.16098476D-03  0.33640103D-02
  0.60671312D-02  0.89459814D-02  0.73632457D-02  0.13885419D-02  0.16736327D-04
  0.32045092D-02 -0.20953516D-02  0.89080153D-03  0.17507284D-02 -0.11554564D-02
  0.45817480D-03  0.26732644D-03 -0.42572362D-04 -0.62566150D-04  0.83496436D-04
  0.50450160D-04 -0.13394660D-03 -0.15937384D-02  0.10864853D-02  0.27159647D-03
 -0.26739694D-04  0.32902922D-04 -0.61632287D-05 -0.16726267D-03  0.91310879D-04
 -0.36910503D-04
MO    2     MO 0.0        OCC NO =    2.0000000  ORB. ENERGY =    0.000000
  0.47308157D-01  0.88174626D-01  0.14951247D+00  0.22627122D+00  0.28225552D+00
  0.24221723D+00  0.92756330D-01  0.20716376D-03  0.22227312D-02  0.81934058D-02
  0.23957038D-01  0.28869396D-01 -0.34776247D-01 -0.15295625D-01  0.40773169D-01
  0.83034321D-02  0.28816645D-01  0.27942452D-01  0.18849813D-01 -0.12592089D+00
 -0.12210090D+00 -0.82368548D-01  0.15270601D+01  0.14807346D+01  0.99889482D+00
  0.61225888D-02 -0.32656710D-01  0.33164246D+00  0.42654724D-03 -0.60703478D-02
  0.39413407D-01 -0.96935883D-05 -0.84431459D-04  0.76822365D-03  0.44629397D-01
 -0.36108606D-02 -0.41018536D-01  0.34256988D-02 -0.54940107D-02  0.40825850D-02
  0.63987235D-02  0.53941163D-02 -0.11792840D-01  0.25745016D-03 -0.12492297D-02
  0.53125104D-02 -0.77786386D-03  0.13470744D-02 -0.56921049D-03 -0.10400354D-03
  0.77210779D-05  0.10470135D-02 -0.63408828D-03 -0.13188192D-02  0.12311793D-02
  0.47674154D-03  0.29284401D-02 -0.18776211D-01  0.14255233D-02  0.10280175D-02
  0.15082673D-01 -0.24193392D-02 -0.16020603D-04  0.26433245D-03  0.63017783D-03
 -0.76160922D-04  0.41925613D-03 -0.24497239D-03  0.12422273D-03 -0.12122535D-02
 -0.16455611D-02 -0.15438370D-04 -0.29617459D-01 -0.53416308D-01 -0.78762315D-01
 -0.57538907D-01 -0.77368093D-02 -0.10061729D-03  0.36539474D-03 -0.32571633D-01
 -0.37096273D-02  0.14709072D-03 -0.13242490D-01  0.33133115D-03  0.65439939D-05
 -0.17870418D-03  0.11449316D-02  0.45263451D-02 -0.80920490D-02  0.35657038D-02
  0.13043827D-03  0.65127577D-04 -0.10783579D-01 -0.26771752D-04 -0.23226746D-03
  0.25903921D-03  0.16954384D-04 -0.23205975D-04  0.79625733D-03 -0.32158723D-01
 -0.57999582D-01 -0.85520350D-01 -0.59278938D-01 -0.97565142D-02 -0.10299649D-03
 -0.14466895D-02  0.26833158D-01 -0.27601449D-02 -0.68379779D-03  0.12474293D-01
 -0.63259665D-03 -0.11634238D-04  0.26597061D-03  0.92026170D-03  0.40472006D-02
 -0.70312430D-02  0.29840424D-02  0.12816823D-02 -0.51142579D-03  0.79495692D-02
  0.26247900D-03 -0.30441648D-03  0.41937480D-04  0.57745405D-04 -0.27960938D-04
 -0.85400217D-04
MO    3     MO 0.0        OCC NO =    2.0000000  ORB. ENERGY =    0.000000
 -0.32664306D-01 -0.60880895D-01 -0.10323211D+00 -0.15623083D+00 -0.19488564D+00
 -0.16724087D+00 -0.64044370D-01 -0.96483125D-04 -0.10352006D-02 -0.38159444D-02
 -0.11157598D-01 -0.13445448D-01  0.16196466D-01  0.45610603D-02  0.17118947D-01
  0.16414585D-02  0.65773849D-01  0.63778508D-01  0.43024605D-01  0.14591232D+01
  0.14148587D+01  0.95445529D+00  0.19642826D+00  0.19046934D+00  0.12848949D+00
  0.15422011D-01  0.30199383D+00  0.36348424D-01  0.30604553D-02  0.28388527D-01
  0.17241805D-02  0.11741546D-03  0.28628238D-03  0.28560759D-04  0.45960239D-02
  0.17633691D-02 -0.63593930D-02 -0.55566020D-02 -0.73724221D-03 -0.13692475D+00
 -0.90109312D-03  0.23881282D-02 -0.14870350D-02 -0.86087871D-03 -0.57047166D-03
 -0.17802996D-01 -0.46018382D-03  0.40704005D-03  0.53143769D-04  0.62147997D-05
 -0.68479209D-04  0.11013153D-02 -0.17130171D-03  0.68133958D-02  0.32113323D-03
 -0.35103550D-03 -0.15261932D-01 -0.99079601D-03  0.86494064D-03 -0.51782557D-02
  0.27396309D-04  0.84140087D-03  0.21515281D-04  0.15733088D-03  0.26391703D-03
 -0.83311735D-04 -0.81620840D-03  0.41871973D-03  0.18765891D-04  0.34421576D-03
 -0.12104708D-02  0.13190144D-03 -0.40299206D-01 -0.72681278D-01 -0.10716850D+00
 -0.77833161D-01 -0.87865829D-02  0.10383087D-03  0.11400699D-02 -0.24402838D-01
 -0.31805850D-01  0.67712383D-03 -0.84435615D-02 -0.11844889D-01  0.11714068D-03
  0.42576656D-03 -0.53659191D-05  0.78459182D-02 -0.35922571D-02 -0.42536611D-02
  0.59569775D-03  0.40890925D-03 -0.23206547D-01 -0.84252684D-04  0.29464738D-03
 -0.21039469D-03  0.54988917D-04  0.50332430D-04 -0.75681827D-04  0.34927479D-01
  0.62993146D-01  0.92883357D-01  0.61083185D-01  0.75542922D-02 -0.14376961D-03
  0.28717660D-02 -0.17574986D-01  0.24116107D-01  0.13245236D-02 -0.60444719D-02
  0.99690317D-02  0.12003791D-03  0.23211782D-03  0.30691467D-03 -0.60414764D-02
  0.31584074D-02  0.28830690D-02 -0.20295304D-02  0.17961336D-02 -0.18353195D-01
 -0.13437054D-03 -0.51612450D-04  0.18598299D-03 -0.11106584D-03  0.93305301D-04
 -0.90149783D-03
MO    4     MO 0.0        OCC NO =    2.0000000  ORB. ENERGY =    0.000000
 -0.71559433D-01 -0.13337502D+00 -0.22615608D+00 -0.34226319D+00 -0.42694635D+00
 -0.36638348D+00 -0.14030541D+00 -0.12706256D-03 -0.13632979D-02 -0.50253729D-02
 -0.14693896D-01 -0.17706859D-01  0.21329788D-01  0.48016250D-02  0.74140882D-02
  0.72641804D-03  0.17703080D+01  0.17166032D+01  0.11580104D+01 -0.49535994D-01
 -0.48033251D-01 -0.32402948D-01 -0.30757508D-02 -0.29824436D-02 -0.20119388D-02
  0.39947420D+00 -0.89020535D-02 -0.11935109D-02  0.65594263D-01  0.10622992D-03
 -0.29360530D-03  0.20990485D-02  0.49536809D-04 -0.38528194D-04 -0.21102911D-02
  0.92435140D-03  0.11859397D-02 -0.42977930D-02 -0.72917739D-01  0.75153510D-02
 -0.84032918D-03  0.57914457D-03  0.26118461D-03  0.10506722D-02 -0.18480231D-01
  0.49580173D-03 -0.70778458D-04  0.55676848D-04  0.15101610D-04  0.30608345D-03
 -0.12160521D-02 -0.12970378D-03 -0.10507873D-01  0.21615475D-03 -0.23644665D-03
  0.21987962D-01 -0.14221707D-02  0.13299761D-02  0.95356564D-02  0.77370642D-03
 -0.62063617D-03  0.18802949D-02 -0.36446120D-03  0.18099184D-04 -0.90619562D-05
  0.56626194D-03 -0.70567013D-04  0.13226722D-03  0.52712167D-03  0.16269461D-04
 -0.10508135D-03 -0.11255086D-02  0.29288295D-02  0.52822646D-02  0.77886961D-02
  0.38911867D-02  0.35848723D-04 -0.17453115D-04  0.26969047D-01  0.29026684D-02
  0.27138730D-02  0.14624264D-01  0.69461838D-03  0.63992836D-03  0.21946582D-02
  0.17487709D-04 -0.20935391D-04 -0.75818411D-03  0.55645440D-03  0.20172971D-03
  0.12944624D-01  0.10302845D-01  0.22221594D-02  0.40710011D-05  0.77918065D-05
 -0.11862808D-04  0.13851055D-02  0.96707484D-03  0.15374679D-04 -0.26485044D-02
 -0.47766867D-02 -0.70432218D-02 -0.64147774D-02 -0.13043820D-02 -0.46012146D-05
  0.22180578D-01  0.19055959D-02 -0.15318326D-02  0.12104928D-01  0.14101661D-02
 -0.10056060D-02  0.19257385D-02  0.99916671D-04 -0.52964832D-04  0.11135666D-02
 -0.82175367D-03 -0.29181289D-03 -0.11362970D-01  0.78359740D-02  0.17401708D-02
  0.91598228D-04 -0.63431638D-04 -0.28166590D-04 -0.11492446D-02  0.62247948D-03
  0.12777268D-03
MO    5     MO 0.0        OCC NO =    2.0000000  ORB. ENERGY =    0.000000
 -0.80354868D-01 -0.14976826D+00 -0.25395313D+00 -0.38433106D+00 -0.47942271D+00
 -0.41141601D+00 -0.15755047D+00 -0.17193595D-02 -0.18447600D-01 -0.68001326D-01
 -0.19883189D+00 -0.23960209D+00  0.28862611D+00  0.16815085D+00  0.97241434D-01
  0.79673792D-02 -0.10544319D+00 -0.10224443D+00 -0.68973487D-01 -0.91340995D-01
 -0.88570040D-01 -0.59748825D-01  0.46139223D+00  0.44739526D+00  0.30181020D+00
 -0.24215947D-01 -0.16496918D-01  0.97081572D-01 -0.40064511D-02 -0.11310496D-02
  0.16577054D-01 -0.13749331D-03 -0.19776431D-04  0.31620286D-03 -0.90152739D-02
  0.21095674D-01 -0.12080401D-01 -0.12276388D-02  0.46350361D-02  0.10771474D-01
 -0.37201087D-02  0.65837863D-02 -0.28636776D-02 -0.78495877D-03  0.14235012D-02
 -0.71630792D-03 -0.18486866D-03  0.34128618D-03 -0.15641752D-03 -0.65259915D-04
  0.96784817D-04 -0.19707407D-03  0.75908656D-03 -0.71516101D-04  0.25825944D-02
 -0.18792520D-02  0.28423268D-03  0.18130510D-03 -0.39800762D-03 -0.69684380D-04
 -0.79290883D-02  0.39140695D-03  0.36048558D-04 -0.18262487D-04 -0.11013441D-03
 -0.43793475D-04 -0.24591288D-03  0.31203093D-04 -0.64352197D-04  0.30070034D-03
  0.29920015D-03  0.10856505D-03  0.14332360D-01  0.25849001D-01  0.38114338D-01
  0.12004801D-02 -0.53942572D-02 -0.12759721D-03 -0.15627250D-02  0.14714756D-01
  0.21344789D-01 -0.83485997D-03 -0.20318390D-02  0.36873923D-02 -0.13065959D-03
 -0.50007349D-03  0.26240857D-03 -0.19311203D-02 -0.59322758D-03  0.25243479D-02
 -0.71356043D-03 -0.63064358D-03  0.75658611D-02  0.13666843D-03 -0.20793967D-03
  0.71271248D-04 -0.78907288D-04 -0.72965379D-04 -0.54068495D-04  0.78968544D-02
  0.14242302D-01  0.21000266D-01 -0.72360468D-02 -0.64214627D-02 -0.12224733D-03
 -0.70409747D-03 -0.10271486D-01  0.14001545D-01 -0.88286273D-03  0.30907829D-02
  0.23247653D-02 -0.14667821D-03  0.53467930D-03  0.23401199D-03 -0.44317776D-03
 -0.13150278D-02  0.17582055D-02  0.76251593D-03 -0.29669618D-03 -0.30883505D-02
  0.13725631D-03 -0.23758270D-03  0.10032639D-03  0.10926064D-03 -0.49602413D-04
  0.28988898D-04
END DATA
 TOTAL ENERGY =    -76.463084508206 THE VIRIAL(-V/T)=   2.00581126
