 62
GAUSSIAN              5 MOL ORBITALS    126 PRIMITIVES        3 NUCLEI   B3LYP   B3LYP   B3LYP   B3LYP
  O    1    (CENTRE  1)   0.00000000  0.00000000  0.10264236  CHARGE =  8.0
  H    2    (CENTRE  2)   0.00000000 -1.44255835 -1.09730160  CHARGE =  1.0
  H    3    (CENTRE  3)   0.09448631  1.44255835 -1.09730160  CHARGE =  1.0
CENTRE ASSIGNMENTS    1  1  1  1  1  1  1  1  1  1  1  1  1  1  1  1  1  1  1  1
CENTRE ASSIGNMENTS    1  1  1  1  1  1  1  1  1  1  1  1  1  1  1  1  1  1  1  1
CENTRE ASSIGNMENTS    1  1  1  1  1  1  1  1  1  1  1  1  1  1  1  1  1  1  1  1
CENTRE ASSIGNMENTS    1  1  1  1  1  1  1  1  1  1  1  1  2  2  2  2  2  2  2  2
CENTRE ASSIGNMENTS    2  2  2  2  2  2  2  2  2  2  2  2  2  2  2  2  2  2  2  3
CENTRE ASSIGNMENTS    3  3  3  3  3  3  3  3  3  3  3  3  3  3  3  3  3  3  3  3
CENTRE ASSIGNMENTS    3  3  3  3  3  3
TYPE ASSIGNMENTS      1  1  1  1  1  1  1  1  1  1  1  1  1  1  1  1  2  2  2  3
TYPE ASSIGNMENTS      3  3  4  4  4  2  3  4  2  3  4  2  3  4  5  6  7  8  9 10
TYPE ASSIGNMENTS      5  6  7  8  9 10  5  6  7  8  9 10 11 12 13 17 14 15 18 19
TYPE ASSIGNMENTS     16 20 11 12 13 17 14 15 18 19 16 20  1  1  1  1  1  1  2  3
TYPE ASSIGNMENTS      4  2  3  4  2  3  4  5  6  7  8  9 10  5  6  7  8  9 10  1
TYPE ASSIGNMENTS      1  1  1  1  1  2  3  4  2  3  4  2  3  4  5  6  7  8  9 10
TYPE ASSIGNMENTS      5  6  7  8  9 10
EXPONENTS  0.1533000D+05 0.2299000D+04 0.5224000D+03 0.1473000D+03 0.4755000D+02
EXPONENTS  0.1676000D+02 0.6207000D+01 0.5224000D+03 0.1473000D+03 0.4755000D+02
EXPONENTS  0.1676000D+02 0.6207000D+01 0.6882000D+00 0.1752000D+01 0.2384000D+00
EXPONENTS  0.7376000D-01 0.3446000D+02 0.7749000D+01 0.2280000D+01 0.3446000D+02
EXPONENTS  0.7749000D+01 0.2280000D+01 0.3446000D+02 0.7749000D+01 0.2280000D+01
EXPONENTS  0.7156000D+00 0.7156000D+00 0.7156000D+00 0.2140000D+00 0.2140000D+00
EXPONENTS  0.2140000D+00 0.5974000D-01 0.5974000D-01 0.5974000D-01 0.2314000D+01
EXPONENTS  0.2314000D+01 0.2314000D+01 0.2314000D+01 0.2314000D+01 0.2314000D+01
EXPONENTS  0.6450000D+00 0.6450000D+00 0.6450000D+00 0.6450000D+00 0.6450000D+00
EXPONENTS  0.6450000D+00 0.2140000D+00 0.2140000D+00 0.2140000D+00 0.2140000D+00
EXPONENTS  0.2140000D+00 0.2140000D+00 0.1428000D+01 0.1428000D+01 0.1428000D+01
EXPONENTS  0.1428000D+01 0.1428000D+01 0.1428000D+01 0.1428000D+01 0.1428000D+01
EXPONENTS  0.1428000D+01 0.1428000D+01 0.5000000D+00 0.5000000D+00 0.5000000D+00
EXPONENTS  0.5000000D+00 0.5000000D+00 0.5000000D+00 0.5000000D+00 0.5000000D+00
EXPONENTS  0.5000000D+00 0.5000000D+00 0.3387000D+02 0.5095000D+01 0.1159000D+01
EXPONENTS  0.3258000D+00 0.1027000D+00 0.2526000D-01 0.1407000D+01 0.1407000D+01
EXPONENTS  0.1407000D+01 0.3880000D+00 0.3880000D+00 0.3880000D+00 0.1020000D+00
EXPONENTS  0.1020000D+00 0.1020000D+00 0.1057000D+01 0.1057000D+01 0.1057000D+01
EXPONENTS  0.1057000D+01 0.1057000D+01 0.1057000D+01 0.2470000D+00 0.2470000D+00
EXPONENTS  0.2470000D+00 0.2470000D+00 0.2470000D+00 0.2470000D+00 0.3387000D+02
EXPONENTS  0.5095000D+01 0.1159000D+01 0.3258000D+00 0.1027000D+00 0.2526000D-01
EXPONENTS  0.1407000D+01 0.1407000D+01 0.1407000D+01 0.3880000D+00 0.3880000D+00
EXPONENTS  0.3880000D+00 0.1020000D+00 0.1020000D+00 0.1020000D+00 0.1057000D+01
EXPONENTS  0.1057000D+01 0.1057000D+01 0.1057000D+01 0.1057000D+01 0.1057000D+01
EXPONENTS  0.2470000D+00 0.2470000D+00 0.2470000D+00 0.2470000D+00 0.2470000D+00
EXPONENTS  0.2470000D+00
MO    1     MO 0.0        OCC NO =    2.0000000  ORB. ENERGY =    0.000000
  0.84958721D-01  0.15834909D+00  0.26850313D+00  0.40635094D+00  0.50689076D+00
  0.43498769D+00  0.16657717D+00 -0.11518335D-03 -0.12358417D-02 -0.45555453D-02
 -0.13320147D-01 -0.16051425D-01  0.19335643D-01  0.21840247D-01  0.96666323D-03
 -0.57119993D-03  0.17502526D+01  0.16971562D+01  0.11448916D+01 -0.43733009D-01
 -0.42406308D-01 -0.28607045D-01 -0.94604803D-01 -0.91734835D-01 -0.61883778D-01
  0.39538322D+00 -0.10060126D-01 -0.20147324D-01  0.65753610D-01 -0.18414183D-02
 -0.14874270D-02  0.21403252D-02 -0.66601967D-04  0.81243676D-05 -0.36257593D-02
  0.16316039D-02  0.19941554D-02  0.33371310D-03 -0.70430641D-01  0.10474018D-02
 -0.31912747D-03 -0.34982735D-03  0.66895482D-03  0.17990845D-04 -0.19221166D-01
  0.42324099D-03  0.12006912D-03 -0.13451480D-03  0.14445677D-04 -0.12209392D-04
 -0.13861551D-02  0.45232133D-04 -0.10338851D-01 -0.59366550D-03  0.39879144D-03
  0.19865018D-01  0.21647548D-02  0.53654128D-03  0.11151536D-01 -0.38375829D-03
 -0.17329156D-02 -0.13000585D-03 -0.53656280D-03 -0.27354374D-04 -0.79334227D-04
  0.84179198D-03  0.97011363D-04 -0.81100027D-04  0.76789643D-03 -0.14948242D-04
  0.31910271D-03  0.84639906D-05  0.40849500D-02  0.73673756D-02  0.10863191D-01
  0.63063354D-02  0.71174944D-03  0.77190444D-05  0.22702393D-01  0.31131326D-02
  0.21243550D-02  0.12358466D-01  0.91526020D-03  0.65819658D-03  0.19346127D-02
 -0.53222710D-04 -0.26191497D-04 -0.37781265D-03  0.29308438D-03  0.84728268D-04
  0.11184767D-01  0.88604142D-02  0.10304082D-02 -0.97758322D-05 -0.99440807D-05
  0.19719913D-04  0.11177772D-02  0.72131971D-03 -0.29808402D-05  0.47516805D-02
  0.85698515D-02  0.12636241D-01  0.75194804D-02  0.86783964D-03  0.52022852D-05
  0.22357074D-01 -0.48747294D-02  0.25902323D-02  0.12227070D-01 -0.18312345D-02
  0.85576091D-03  0.19300375D-02 -0.65439959D-04 -0.22230483D-04 -0.12169619D-02
  0.10516592D-02  0.16530265D-03 -0.10963350D-01  0.87139800D-02 -0.19399768D-02
 -0.85947566D-04  0.60569269D-04  0.25378297D-04 -0.11042103D-02  0.71361784D-03
 -0.58683638D-04
MO    2     MO 0.0        OCC NO =    2.0000000  ORB. ENERGY =    0.000000
  0.87433183D-01  0.16296108D+00  0.27632341D+00  0.41818609D+00  0.52165419D+00
  0.44765690D+00  0.17142881D+00  0.17144425D-03  0.18394842D-02  0.67806853D-02
  0.19826326D-01  0.23891687D-01 -0.28780069D-01 -0.68445431D-02  0.11513884D-01
  0.30978961D-02  0.51783153D-01  0.50212240D-01  0.33872880D-01  0.13089722D+01
  0.12692627D+01  0.85623715D+00  0.61102975D+00  0.59249332D+00  0.39969249D+00
  0.11267725D-01  0.27752296D+00  0.13386851D+00  0.15883196D-02  0.29823806D-01
  0.15967670D-01  0.40249780D-04  0.34811699D-03  0.29365428D-03  0.18848044D-01
 -0.16283188D-02 -0.17219725D-01  0.35152014D-02 -0.25230069D-02 -0.12322230D+00
  0.32105190D-02  0.18987291D-02 -0.51092481D-02  0.68720297D-03 -0.34889002D-03
 -0.19599029D-01 -0.22102858D-03  0.47452217D-03 -0.25349359D-03  0.45277098D-04
 -0.23354133D-04  0.11764723D-04 -0.36291832D-03  0.54283400D-02  0.73161520D-03
  0.16513972D-02 -0.14802435D-01 -0.80861989D-02 -0.56264224D-03 -0.14825848D-02
  0.58913533D-02 -0.13971183D-03 -0.33767015D-04  0.86618485D-04  0.29239374D-03
  0.11950600D-03 -0.11117270D-02 -0.33190039D-03 -0.18204956D-04  0.85187158D-03
 -0.54528083D-03 -0.16985856D-03 -0.46069958D-01 -0.83089066D-01 -0.12251478D+00
 -0.82784339D-01 -0.11094155D-01  0.87647578D-04  0.57841090D-03 -0.26372419D-01
 -0.25761551D-01  0.28974095D-03 -0.10550909D-01 -0.10210303D-01  0.36874451D-04
  0.23031550D-03  0.18135672D-03  0.74997156D-02 -0.44365965D-02 -0.30631192D-02
  0.25638745D-03  0.31117046D-03 -0.21008824D-01  0.22850388D-03 -0.74591654D-05
 -0.22104471D-03  0.29922951D-04  0.28817063D-04 -0.61878788D-03  0.19178848D-01
  0.34589842D-01  0.51002702D-01  0.34724641D-01  0.38673813D-02 -0.16599532D-03
 -0.46174799D-03 -0.24243982D-02  0.20546179D-01 -0.11893907D-03 -0.12957714D-03
  0.88212985D-02  0.31654618D-04  0.46052621D-03  0.50539734D-03 -0.36469363D-02
 -0.12483135D-02  0.48952498D-02  0.41458747D-03 -0.89544734D-03 -0.11849245D-01
 -0.61385571D-04 -0.22523614D-03  0.28662171D-03 -0.46480454D-05 -0.36409577D-04
 -0.68902498D-03
MO    3     MO 0.0        OCC NO =    2.0000000  ORB. ENERGY =    0.000000
  0.77344992D-01  0.14415835D+00  0.24444074D+00  0.36993506D+00  0.46146483D+00
  0.39600548D+00  0.15164906D+00 -0.38916506D-03 -0.41754857D-02 -0.15391626D-01
 -0.45004213D-01 -0.54232265D-01  0.65328510D-01  0.48317581D-01 -0.20602436D-01
 -0.62171565D-02 -0.22488622D+00 -0.21806398D+00 -0.14710468D+00  0.56948481D+00
  0.55220870D+00  0.37251673D+00 -0.12759689D+01 -0.12372607D+01 -0.83464873D+00
 -0.51422839D-01  0.12096274D+00 -0.27909519D+00 -0.93084573D-02  0.13171069D-01
 -0.33311986D-01 -0.33044937D-03  0.16148464D-03 -0.61983734D-03 -0.40705141D-01
  0.45446459D-02  0.36160495D-01  0.50559938D-02  0.39651739D-02 -0.52874651D-01
 -0.67769240D-02 -0.39415118D-02  0.10718436D-01  0.51760112D-03  0.15599026D-02
 -0.85165450D-02  0.46446407D-03 -0.99991528D-03  0.53545121D-03 -0.96313970D-04
  0.22858577D-03 -0.19362340D-04  0.82778442D-03  0.24333020D-02 -0.13454174D-02
 -0.21428294D-02 -0.66594436D-02  0.17623623D-01 -0.34052390D-03 -0.64046250D-03
 -0.13587371D-01 -0.25060255D-02  0.52310327D-04  0.40357265D-04 -0.66496982D-03
 -0.16442280D-03 -0.50370838D-03  0.56584072D-03  0.74918208D-05  0.38263658D-03
  0.14290687D-02 -0.92746491D-05  0.14496182D-01  0.26144461D-01  0.38549993D-01
  0.24917611D-01  0.41224144D-02  0.13284119D-03 -0.30179798D-02  0.19283995D-01
 -0.41398221D-02 -0.16921317D-02  0.84543645D-02 -0.27227757D-02 -0.28133537D-03
  0.36995541D-03 -0.80717616D-03 -0.12869097D-02  0.49921837D-02 -0.37052739D-02
 -0.15272000D-02 -0.12497883D-02  0.15079678D-02 -0.10955779D-03  0.28809494D-03
 -0.17853716D-03 -0.14734013D-03 -0.12821128D-03 -0.36423252D-03  0.42411877D-01
  0.76491567D-01  0.11278677D+00  0.75162167D-01  0.10552387D-01  0.24549802D-04
 -0.54389779D-02 -0.31222655D-01  0.15619112D-01 -0.27050024D-02 -0.12860463D-01
  0.54176272D-02 -0.30029761D-03 -0.56478582D-04 -0.66539642D-03 -0.58851704D-02
  0.61855498D-02 -0.30037943D-03  0.32792546D-02 -0.24402920D-02 -0.15382140D-01
 -0.22543115D-03  0.18390430D-03  0.41526842D-04  0.22231031D-03 -0.14930937D-03
 -0.19713395D-03
MO    4     MO 0.0        OCC NO =    2.0000000  ORB. ENERGY =    0.000000
  0.48422094D+00  0.90250822D+00  0.15303295D+01  0.23159910D+01  0.28890162D+01
  0.24792057D+01  0.94940408D+00  0.27355553D-03  0.29350713D-02  0.10819225D-01
  0.31634781D-01  0.38121449D-01 -0.45921325D-01  0.29399037D-01 -0.62707114D-02
  0.18261078D-03 -0.29394766D+00 -0.28503036D+00 -0.19227979D+00 -0.32594591D+00
 -0.31605789D+00 -0.21321079D+00  0.13509859D+00  0.13100019D+00  0.88371956D-01
 -0.66308654D-01 -0.69028037D-01  0.31733138D-01 -0.10827504D-01 -0.73163315D-02
  0.33464895D-02 -0.34541159D-03 -0.78616179D-04  0.53221498D-04  0.45771229D-02
 -0.74692145D-03 -0.38302015D-02 -0.15832890D-02  0.12821220D-01  0.31142366D-01
  0.16220366D-02 -0.33080753D-03 -0.12912291D-02 -0.32901925D-03  0.34384501D-02
  0.49386089D-02  0.15821221D-05  0.64666433D-04 -0.66248556D-04  0.33231703D-05
  0.22714109D-03 -0.47451989D-05  0.18260097D-02 -0.12876893D-02  0.15161624D-03
 -0.35755451D-02  0.34327282D-02 -0.15365485D-02 -0.19024840D-02  0.43033980D-03
  0.10816997D-02  0.44046232D-03  0.11003297D-03 -0.16936292D-04 -0.10878991D-04
 -0.17275225D-03  0.26703080D-03 -0.37535983D-03 -0.15734665D-03 -0.21622193D-03
  0.40799680D-03  0.94131505D-04  0.30339739D-02  0.54718969D-02  0.80683088D-02
  0.76975648D-02  0.12587714D-02 -0.30814402D-04 -0.37822708D-02 -0.12615522D-02
  0.33996257D-02 -0.20415880D-02 -0.22511550D-03  0.17678330D-02 -0.31465916D-03
 -0.93861155D-04  0.97425764D-04 -0.11841714D-03 -0.86677325D-03  0.98519038D-03
 -0.18458329D-02 -0.14807134D-02  0.47672378D-03 -0.17601807D-04 -0.52763113D-04
  0.70364921D-04 -0.18622310D-03 -0.11686225D-03  0.15697912D-03 -0.13654566D-01
 -0.24626572D-01 -0.36311865D-01 -0.22322956D-01 -0.25628099D-02  0.34429551D-04
 -0.29771860D-02  0.88039673D-02 -0.84123154D-02 -0.17377843D-02  0.30556403D-02
 -0.30840732D-02 -0.30983340D-03 -0.65083643D-04  0.15174837D-04  0.28140567D-02
 -0.17689981D-02 -0.10450586D-02  0.11647044D-02 -0.84732496D-03  0.79491158D-02
  0.68102954D-04 -0.77892460D-05 -0.60313708D-04  0.16517014D-03 -0.98951657D-04
  0.18555626D-03
MO    5     MO 0.0        OCC NO =    2.0000000  ORB. ENERGY =    0.000000
 -0.63145627D-01 -0.11769307D+00 -0.19956513D+00 -0.30202061D+00 -0.37674690D+00
 -0.32330489D+00 -0.12380860D+00 -0.16771857D-02 -0.17995102D-01 -0.66333335D-01
 -0.19395478D+00 -0.23372494D+00  0.28154646D+00  0.16606592D+00  0.10512649D+00
  0.93727345D-02 -0.12281249D+00 -0.11908680D+00 -0.80335254D-01 -0.48160125D-01
 -0.46699121D-01 -0.31502951D-01  0.69572328D+00  0.67461755D+00  0.45509301D+00
 -0.27291803D-01 -0.10163671D-01  0.14621882D+00 -0.44086485D-02 -0.10472491D-02
  0.21439828D-01 -0.13033508D-03 -0.98545034D-05  0.38023627D-03 -0.88524296D-03
  0.17704360D-01 -0.16819117D-01  0.10271584D-02  0.51697705D-02  0.47603775D-02
 -0.31646888D-02  0.74639268D-02 -0.42992379D-02  0.66596317D-03  0.11411845D-02
  0.73243638D-03 -0.37827909D-03  0.60119394D-03 -0.22291485D-03  0.63899480D-04
  0.62572502D-04 -0.11155226D-05  0.67450439D-03 -0.18563767D-03  0.29160459D-02
 -0.87886789D-03  0.46698884D-03 -0.25656169D-02 -0.11446453D-02  0.89924175D-04
 -0.61825207D-02 -0.19668326D-03  0.24772443D-04 -0.22201705D-05  0.15346052D-03
 -0.25206562D-04  0.37073919D-04  0.14084772D-03 -0.49110766D-04 -0.30413408D-04
 -0.60122930D-03 -0.41932705D-04  0.55346480D-02  0.99819656D-02  0.14718402D-01
 -0.12362317D-01 -0.72996899D-02 -0.15004783D-03 -0.16238587D-02  0.66870711D-02
  0.15875229D-01 -0.90680831D-03 -0.45184312D-02  0.24260192D-02 -0.13482351D-03
 -0.55836184D-03  0.32092586D-03 -0.35794644D-03 -0.19731445D-02  0.23310909D-02
 -0.81414711D-03 -0.59771127D-03  0.27419269D-02  0.13508090D-03 -0.21797145D-03
  0.82890555D-04 -0.83275119D-04 -0.34603701D-04  0.34025482D-05  0.29203236D-02
  0.52669238D-02  0.77660761D-02 -0.17005190D-01 -0.78941685D-02 -0.14000928D-03
 -0.19430681D-02 -0.54258545D-02  0.13996286D-01 -0.56407631D-03  0.49865437D-02
  0.16755861D-02 -0.98120368D-04  0.53956666D-03  0.30791902D-03  0.13133889D-03
 -0.21432375D-02  0.20118986D-02  0.50648232D-03 -0.67085709D-03 -0.13885447D-02
  0.15105897D-03 -0.21421315D-03  0.63154180D-04  0.33940245D-04 -0.30218777D-04
  0.51174357D-04
END DATA
 TOTAL ENERGY =    -76.464203778810 THE VIRIAL(-V/T)=   2.00731580
