 62
GAUSSIAN              5 MOL ORBITALS    126 PRIMITIVES        3 NUCLEI   B3LYP   B3LYP   B3LYP   B3LYP
  O    1    (CENTRE  1)   0.00000000  0.00000000  0.10264236  CHARGE =  8.0
  H    2    (CENTRE  2)   0.00000000 -1.44255835 -1.09730160  CHARGE =  1.0
  H    3    (CENTRE  3)  -0.09448631  1.44255835 -1.09730160  CHARGE =  1.0
CENTRE ASSIGNMENTS    1  1  1  1  1  1  1  1  1  1  1  1  1  1  1  1  1  1  1  1
CENTRE ASSIGNMENTS    1  1  1  1  1  1  1  1  1  1  1  1  1  1  1  1  1  1  1  1
CENTRE ASSIGNMENTS    1  1  1  1  1  1  1  1  1  1  1  1  1  1  1  1  1  1  1  1
CENTRE ASSIGNMENTS    1  1  1  1  1  1  1  1  1  1  1  1  2  2  2  2  2  2  2  2
CENTRE ASSIGNMENTS    2  2  2  2  2  2  2  2  2  2  2  2  2  2  2  2  2  2  2  3
CENTRE ASSIGNMENTS    3  3  3  3  3  3  3  3  3  3  3  3  3  3  3  3  3  3  3  3
CENTRE ASSIGNMENTS    3  3  3  3  3  3
TYPE ASSIGNMENTS      1  1  1  1  1  1  1  1  1  1  1  1  1  1  1  1  2  2  2  3
TYPE ASSIGNMENTS      3  3  4  4  4  2  3  4  2  3  4  2  3  4  5  6  7  8  9 10
TYPE ASSIGNMENTS      5  6  7  8  9 10  5  6  7  8  9 10 11 12 13 17 14 15 18 19
TYPE ASSIGNMENTS     16 20 11 12 13 17 14 15 18 19 16 20  1  1  1  1  1  1  2  3
TYPE ASSIGNMENTS      4  2  3  4  2  3  4  5  6  7  8  9 10  5  6  7  8  9 10  1
TYPE ASSIGNMENTS      1  1  1  1  1  2  3  4  2  3  4  2  3  4  5  6  7  8  9 10
TYPE ASSIGNMENTS      5  6  7  8  9 10
EXPONENTS  0.1533000D+05 0.2299000D+04 0.5224000D+03 0.1473000D+03 0.4755000D+02
EXPONENTS  0.1676000D+02 0.6207000D+01 0.5224000D+03 0.1473000D+03 0.4755000D+02
EXPONENTS  0.1676000D+02 0.6207000D+01 0.6882000D+00 0.1752000D+01 0.2384000D+00
EXPONENTS  0.7376000D-01 0.3446000D+02 0.7749000D+01 0.2280000D+01 0.3446000D+02
EXPONENTS  0.7749000D+01 0.2280000D+01 0.3446000D+02 0.7749000D+01 0.2280000D+01
EXPONENTS  0.7156000D+00 0.7156000D+00 0.7156000D+00 0.2140000D+00 0.2140000D+00
EXPONENTS  0.2140000D+00 0.5974000D-01 0.5974000D-01 0.5974000D-01 0.2314000D+01
EXPONENTS  0.2314000D+01 0.2314000D+01 0.2314000D+01 0.2314000D+01 0.2314000D+01
EXPONENTS  0.6450000D+00 0.6450000D+00 0.6450000D+00 0.6450000D+00 0.6450000D+00
EXPONENTS  0.6450000D+00 0.2140000D+00 0.2140000D+00 0.2140000D+00 0.2140000D+00
EXPONENTS  0.2140000D+00 0.2140000D+00 0.1428000D+01 0.1428000D+01 0.1428000D+01
EXPONENTS  0.1428000D+01 0.1428000D+01 0.1428000D+01 0.1428000D+01 0.1428000D+01
EXPONENTS  0.1428000D+01 0.1428000D+01 0.5000000D+00 0.5000000D+00 0.5000000D+00
EXPONENTS  0.5000000D+00 0.5000000D+00 0.5000000D+00 0.5000000D+00 0.5000000D+00
EXPONENTS  0.5000000D+00 0.5000000D+00 0.3387000D+02 0.5095000D+01 0.1159000D+01
EXPONENTS  0.3258000D+00 0.1027000D+00 0.2526000D-01 0.1407000D+01 0.1407000D+01
EXPONENTS  0.1407000D+01 0.3880000D+00 0.3880000D+00 0.3880000D+00 0.1020000D+00
EXPONENTS  0.1020000D+00 0.1020000D+00 0.1057000D+01 0.1057000D+01 0.1057000D+01
EXPONENTS  0.1057000D+01 0.1057000D+01 0.1057000D+01 0.2470000D+00 0.2470000D+00
EXPONENTS  0.2470000D+00 0.2470000D+00 0.2470000D+00 0.2470000D+00 0.3387000D+02
EXPONENTS  0.5095000D+01 0.1159000D+01 0.3258000D+00 0.1027000D+00 0.2526000D-01
EXPONENTS  0.1407000D+01 0.1407000D+01 0.1407000D+01 0.3880000D+00 0.3880000D+00
EXPONENTS  0.3880000D+00 0.1020000D+00 0.1020000D+00 0.1020000D+00 0.1057000D+01
EXPONENTS  0.1057000D+01 0.1057000D+01 0.1057000D+01 0.1057000D+01 0.1057000D+01
EXPONENTS  0.2470000D+00 0.2470000D+00 0.2470000D+00 0.2470000D+00 0.2470000D+00
EXPONENTS  0.2470000D+00
MO    1     MO 0.0        OCC NO =    2.0000000  ORB. ENERGY =    0.000000
  0.22471325D-01  0.41882855D-01  0.71018266D-01  0.10747859D+00  0.13407107D+00
  0.11505293D+00  0.44059159D-01  0.11545487D-03  0.12387549D-02  0.45662839D-02
  0.13351546D-01  0.16089263D-01 -0.19381222D-01 -0.83515350D-02  0.31024971D-01
  0.64161171D-02  0.31190995D+00  0.30244773D+00  0.20402945D+00  0.94528623D+00
  0.91660967D+00  0.61833947D+00  0.11342327D+01  0.10998242D+01  0.74193491D+00
  0.70548833D-01  0.20052949D+00  0.24740969D+00  0.11681688D-01  0.21675914D-01
  0.29801129D-01  0.37829735D-03  0.26138812D-03  0.54032796D-03  0.32834695D-01
 -0.13108773D-02 -0.31523817D-01 -0.12398945D-02 -0.14117284D-01 -0.88486182D-01
  0.50841479D-02  0.41972566D-02 -0.92814045D-02 -0.49050615D-03 -0.39382076D-02
 -0.14099434D-01 -0.44799238D-03  0.90654644D-03 -0.45855406D-03 -0.87500822D-04
 -0.23914810D-03  0.65556958D-05 -0.19751143D-02  0.39954309D-02  0.14290202D-02
  0.26900743D-02 -0.11024043D-01 -0.14270741D-01  0.32352685D-02 -0.96224988D-03
  0.99836807D-02 -0.83184906D-03 -0.84562523D-04  0.67637078D-04  0.54833385D-03
  0.40998747D-04 -0.81037025D-03 -0.47192339D-03  0.21268882D-03  0.60745902D-03
 -0.11730782D-02  0.15353218D-03 -0.46492596D-01 -0.83851311D-01 -0.12363871D+00
 -0.85681801D-01 -0.12460187D-01  0.62722606D-05  0.40938510D-02 -0.30522000D-01
 -0.19704124D-01  0.22349890D-02 -0.13320841D-01 -0.78442428D-02  0.35022699D-03
  0.55616930D-05  0.51281109D-03  0.71649099D-02 -0.61356474D-02 -0.10292625D-02
  0.20286466D-02  0.14905174D-02 -0.19050940D-01  0.26287305D-03 -0.14092138D-03
 -0.12195167D-03  0.20118251D-03  0.10646190D-03 -0.40768298D-03  0.84046407D-04
  0.15158116D-03  0.22350633D-03 -0.17834495D-02 -0.17912029D-02 -0.17490293D-03
  0.40515234D-02  0.10193067D-01  0.13370824D-01  0.21368076D-02  0.58368204D-02
  0.57427376D-02  0.34188767D-03  0.51260134D-03  0.74277754D-03 -0.67423500D-03
 -0.39775972D-02  0.46518322D-02 -0.18636567D-02  0.20781175D-02 -0.43292932D-02
  0.71274378D-04 -0.31058577D-03  0.23931139D-03 -0.18555050D-03  0.15365139D-03
 -0.51312035D-03
MO    2     MO 0.0        OCC NO =    2.0000000  ORB. ENERGY =    0.000000
  0.62385740D-01  0.11627676D+00  0.19716359D+00  0.29838613D+00  0.37221317D+00
  0.31941428D+00  0.12231870D+00 -0.15918617D-03 -0.17079631D-02 -0.62958738D-02
 -0.18408766D-01 -0.22183458D-01  0.26722326D-01  0.23130842D-01 -0.19049957D-01
 -0.45367037D-02 -0.59968335D+00 -0.58149113D+00 -0.39227048D+00  0.10760167D+01
  0.10433742D+01  0.70385409D+00 -0.83603485D+00 -0.81067258D+00 -0.54687493D+00
 -0.13473473D+00  0.22797716D+00 -0.18235187D+00 -0.21645788D-01  0.24311640D-01
 -0.21703077D-01 -0.67573504D-03  0.27064112D-03 -0.38807490D-03 -0.25125620D-01
  0.19267211D-02  0.23198899D-01 -0.58130756D-02  0.28457986D-01 -0.10203078D+00
 -0.38967247D-02 -0.29699185D-02  0.68666432D-02 -0.71243215D-03  0.72066389D-02
 -0.16205015D-01  0.34228891D-03 -0.67962690D-03  0.33733799D-03  0.65452064D-04
  0.42361906D-03  0.90714339D-05  0.39666210D-02  0.43432298D-02 -0.84651485D-03
 -0.75984412D-02 -0.11630014D-01  0.10703394D-01 -0.43014218D-02 -0.13996758D-02
 -0.81638498D-02  0.21129619D-02  0.20686656D-03  0.62771851D-04 -0.42730479D-03
 -0.28959002D-03 -0.90382934D-03  0.30311126D-03 -0.33100967D-03  0.71551378D-03
  0.97880311D-03  0.92137026D-04 -0.90536467D-02 -0.16328625D-01 -0.24076548D-01
 -0.15862745D-01 -0.10879036D-02  0.16473418D-03 -0.76556209D-02  0.38079816D-02
 -0.16080810D-01 -0.41171620D-02  0.25836478D-02 -0.69979256D-02 -0.62644111D-03
  0.43712245D-03 -0.59974876D-03  0.23112480D-02  0.22954482D-02 -0.46066963D-02
 -0.37258843D-02 -0.29682619D-02 -0.82969153D-02  0.52800654D-05  0.24481226D-03
 -0.25009233D-03 -0.37886784D-03 -0.22079772D-03 -0.59050014D-03  0.45433209D-01
  0.81940664D-01  0.12082146D+00  0.82234893D-01  0.11428375D-01 -0.46915879D-04
 -0.50676046D-02 -0.28177619D-01  0.22541986D-01 -0.30131024D-02 -0.11714411D-01
  0.88907358D-02 -0.60339275D-03  0.10028139D-03 -0.32655316D-03 -0.71683285D-02
  0.51303618D-02  0.20379667D-02  0.18362684D-02 -0.13435567D-02 -0.19233019D-01
 -0.26168200D-03  0.85351401D-04  0.17633060D-03  0.29591339D-03 -0.16847386D-03
 -0.52363025D-03
MO    3     MO 0.0        OCC NO =    2.0000000  ORB. ENERGY =    0.000000
 -0.60830582D-01 -0.11337820D+00 -0.19224868D+00 -0.29094793D+00 -0.36293461D+00
 -0.31145189D+00 -0.11926953D+00  0.72204429D-04  0.77470614D-03  0.28557127D-02
  0.83499364D-02  0.10062079D-01 -0.12120841D-01 -0.15089337D-01 -0.20610166D-01
 -0.33414044D-02  0.16260165D+01  0.15766891D+01  0.10636251D+01  0.26857992D+00
  0.26043217D+00  0.17568601D+00 -0.58869772D+00 -0.57083876D+00 -0.38508446D+00
  0.36763159D+00  0.57732772D-01 -0.12877722D+00  0.61491692D-01  0.69452789D-02
 -0.16553322D-01  0.20151962D-02  0.12392232D-03 -0.33728913D-03 -0.15958622D-01
 -0.10440216D-02  0.17002643D-01 -0.18322273D-02 -0.63084621D-01 -0.22279845D-01
 -0.26560008D-02 -0.22550659D-02  0.49110667D-02 -0.14290198D-03 -0.17448942D-01
 -0.38157700D-02  0.14829408D-03 -0.41124817D-03  0.26295409D-03  0.40707029D-04
 -0.13135721D-02 -0.48849176D-04 -0.93820299D-02  0.15065307D-02 -0.12805874D-02
  0.18347971D-01 -0.45944925D-02  0.80900862D-02  0.97981189D-02  0.74900261D-04
 -0.42483240D-02  0.10115965D-02 -0.49192748D-03  0.40307105D-04 -0.25472347D-03
  0.81264033D-03 -0.28927707D-03  0.34326596D-03  0.66314210D-03  0.16835576D-03
  0.42090444D-03  0.59640717D-05  0.38960194D-02  0.70266315D-02  0.10360764D-01
  0.94943421D-02  0.22882295D-02  0.66152574D-04  0.21131528D-01  0.62959731D-02
 -0.45418456D-02  0.11523217D-01  0.38394080D-02 -0.17648585D-02  0.18119104D-02
  0.26509478D-03 -0.38360350D-03 -0.47650647D-03  0.23882972D-02 -0.19117907D-02
  0.10427461D-01  0.82861730D-02  0.23589324D-03 -0.61465358D-04  0.16297731D-03
 -0.10151195D-03  0.10395940D-02  0.68819191D-03 -0.14709598D-03  0.14594281D-01
  0.26321387D-01  0.38810869D-01  0.28728685D-01  0.47507912D-02  0.24594624D-04
  0.21887251D-01 -0.95659442D-02  0.30341004D-02  0.11897229D-01 -0.48115671D-02
  0.13499948D-02  0.18200696D-02 -0.34211053D-04 -0.32965966D-03 -0.15934366D-02
  0.21999143D-02 -0.60647770D-03 -0.11060399D-01  0.86730948D-02 -0.50373550D-02
 -0.41515255D-04  0.58933171D-04 -0.17417917D-04 -0.10663488D-02  0.68982469D-03
 -0.26017353D-04
MO    4     MO 0.0        OCC NO =    2.0000000  ORB. ENERGY =    0.000000
  0.50081302D+00  0.93343313D+00  0.15827670D+01  0.23953496D+01  0.29880098D+01
  0.25641570D+01  0.98193590D+00  0.51542080D-03  0.55301270D-02  0.20385089D-01
  0.59604805D-01  0.71826689D-01 -0.86522858D-01  0.62307816D-02 -0.25644134D-01
 -0.19552250D-02  0.24631147D+00  0.23883927D+00  0.16111956D+00 -0.14112409D+00
 -0.13684290D+00 -0.92313409D-01 -0.98117481D-01 -0.95140952D-01 -0.64181524D-01
  0.55735531D-01 -0.29844910D-01 -0.18288550D-01  0.92104498D-02 -0.31133881D-02
 -0.32710853D-02  0.29942030D-03 -0.30289759D-04 -0.65885023D-04  0.10017544D-02
 -0.32774435D-02  0.22756892D-02  0.82532159D-03 -0.10187023D-01  0.13708232D-01
  0.15318117D-02 -0.19389310D-02  0.40711928D-03  0.31818770D-03 -0.28512480D-02
  0.21634889D-02  0.10869258D-03 -0.12839050D-03  0.19697920D-04  0.16234582D-04
 -0.20297457D-03 -0.47929387D-05 -0.14856566D-02 -0.52657987D-03 -0.44784604D-03
  0.29854566D-02  0.13763305D-02  0.48339704D-03  0.14715133D-02  0.20340915D-03
  0.86014107D-03 -0.14352823D-03 -0.93724049D-04 -0.52594029D-05 -0.97410339D-04
  0.15444714D-03  0.10997902D-03 -0.34816937D-03  0.12672501D-03 -0.94200807D-04
  0.64040039D-03 -0.84985502D-04  0.36079791D-03  0.65071389D-03  0.95947725D-03
  0.64775149D-02  0.21438644D-02  0.18626903D-04  0.31793305D-02 -0.19576541D-02
 -0.18140718D-02  0.17178356D-02  0.79794446D-03  0.21357656D-03  0.26797202D-03
  0.65117133D-04 -0.44937271D-04  0.35232971D-03 -0.23150906D-03 -0.12082065D-03
  0.15539208D-02  0.12536672D-02 -0.13984676D-02 -0.36325493D-04  0.20046605D-04
  0.16278889D-04  0.15570711D-03  0.10382843D-03  0.60680307D-04 -0.70552879D-02
 -0.12724502D-01 -0.18762271D-01 -0.68592611D-02  0.45107602D-03  0.47866950D-04
  0.27232350D-02  0.53956946D-02 -0.70487166D-02  0.16380664D-02  0.50566468D-03
 -0.19363960D-02  0.27234867D-03 -0.12873550D-03 -0.80752084D-04  0.16945320D-02
 -0.67432654D-03 -0.10202055D-02 -0.12127760D-02  0.86475560D-03  0.51564308D-02
  0.63539434D-05  0.35622679D-04 -0.41976623D-04 -0.15500040D-03  0.94862261D-04
  0.94025588D-04
MO    5     MO 0.0        OCC NO =    2.0000000  ORB. ENERGY =    0.000000
  0.19776310D-01  0.36859790D-01  0.62500954D-01  0.94588548D-01  0.11799176D+00
  0.10125448D+00  0.38775088D-01 -0.16650382D-02 -0.17864767D-01 -0.65852896D-01
 -0.19255000D+00 -0.23203212D+00  0.27950727D+00  0.17444005D+00  0.96130193D-01
  0.77279775D-02  0.23795049D+00  0.23073193D+00  0.15565040D+00 -0.69027462D-01
 -0.66933418D-01 -0.45152889D-01  0.41358974D+00  0.40104293D+00  0.27054119D+00
  0.53393076D-01 -0.14522308D-01  0.85005610D-01  0.88496230D-02 -0.14565561D-02
  0.13924411D-01  0.27876508D-03 -0.11471135D-04  0.23926574D-03 -0.90521827D-02
  0.17964057D-01 -0.89118741D-02 -0.14918239D-02 -0.90041143D-02  0.69769187D-02
 -0.43067879D-02  0.63087676D-02 -0.20019797D-02 -0.64994067D-03 -0.22567974D-02
  0.10590479D-02 -0.26538761D-03  0.37334117D-03 -0.10795355D-03 -0.41335968D-04
 -0.16252942D-03 -0.69666162D-05 -0.12779802D-02 -0.24257608D-03  0.25360596D-02
  0.22273076D-02  0.59812629D-03  0.11445867D-02  0.16066329D-02  0.12960195D-03
 -0.87527654D-02  0.59056513D-03 -0.61446873D-04 -0.20238748D-05  0.30251141D-05
  0.10308970D-03  0.48643942D-04  0.20976734D-03  0.81250919D-04 -0.42572317D-04
 -0.21884268D-03  0.17584430D-04  0.11413383D-01  0.20584506D-01  0.30351843D-01
 -0.94072204D-03 -0.54017778D-02 -0.13020187D-03  0.31250805D-02  0.11567718D-01
  0.16677072D-01  0.17284726D-02 -0.21458640D-02  0.27284385D-02  0.26553291D-03
 -0.49769499D-03  0.16046811D-03 -0.10759951D-02 -0.81422827D-03  0.18902234D-02
  0.15565328D-02  0.12045513D-02  0.43201112D-02  0.92959757D-04 -0.16338106D-03
  0.70421303D-04  0.15693448D-03  0.89166539D-04 -0.33949429D-05  0.75627895D-02
  0.13639802D-01  0.20111881D-01 -0.78128292D-02 -0.62736671D-02 -0.11525588D-03
  0.37027517D-02 -0.96409009D-02  0.13916330D-01  0.15160623D-02  0.28742839D-02
  0.16189753D-02  0.23249270D-03  0.47367177D-03  0.14200574D-03 -0.32020425D-03
 -0.11008591D-02  0.14210633D-02 -0.14440074D-02  0.13282377D-02 -0.22976809D-02
  0.11878469D-03 -0.16024425D-03  0.41459555D-04 -0.11848383D-03  0.82005028D-04
  0.84333161D-04
END DATA
 TOTAL ENERGY =    -76.464203778809 THE VIRIAL(-V/T)=   2.00731580
