 62
GAUSSIAN              5 MOL ORBITALS    126 PRIMITIVES        3 NUCLEI   B3LYP   B3LYP   B3LYP   B3LYP
  O    1    (CENTRE  1)   0.00000000  0.00000000 -0.08633025  CHARGE =  8.0
  H    2    (CENTRE  2)   0.00000000 -1.44255835 -1.09730160  CHARGE =  1.0
  H    3    (CENTRE  3)  -0.09448631  1.44255835 -1.09730160  CHARGE =  1.0
CENTRE ASSIGNMENTS    1  1  1  1  1  1  1  1  1  1  1  1  1  1  1  1  1  1  1  1
CENTRE ASSIGNMENTS    1  1  1  1  1  1  1  1  1  1  1  1  1  1  1  1  1  1  1  1
CENTRE ASSIGNMENTS    1  1  1  1  1  1  1  1  1  1  1  1  1  1  1  1  1  1  1  1
CENTRE ASSIGNMENTS    1  1  1  1  1  1  1  1  1  1  1  1  2  2  2  2  2  2  2  2
CENTRE ASSIGNMENTS    2  2  2  2  2  2  2  2  2  2  2  2  2  2  2  2  2  2  2  3
CENTRE ASSIGNMENTS    3  3  3  3  3  3  3  3  3  3  3  3  3  3  3  3  3  3  3  3
CENTRE ASSIGNMENTS    3  3  3  3  3  3
TYPE ASSIGNMENTS      1  1  1  1  1  1  1  1  1  1  1  1  1  1  1  1  2  2  2  3
TYPE ASSIGNMENTS      3  3  4  4  4  2  3  4  2  3  4  2  3  4  5  6  7  8  9 10
TYPE ASSIGNMENTS      5  6  7  8  9 10  5  6  7  8  9 10 11 12 13 17 14 15 18 19
TYPE ASSIGNMENTS     16 20 11 12 13 17 14 15 18 19 16 20  1  1  1  1  1  1  2  3
TYPE ASSIGNMENTS      4  2  3  4  2  3  4  5  6  7  8  9 10  5  6  7  8  9 10  1
TYPE ASSIGNMENTS      1  1  1  1  1  2  3  4  2  3  4  2  3  4  5  6  7  8  9 10
TYPE ASSIGNMENTS      5  6  7  8  9 10
EXPONENTS  0.1533000D+05 0.2299000D+04 0.5224000D+03 0.1473000D+03 0.4755000D+02
EXPONENTS  0.1676000D+02 0.6207000D+01 0.5224000D+03 0.1473000D+03 0.4755000D+02
EXPONENTS  0.1676000D+02 0.6207000D+01 0.6882000D+00 0.1752000D+01 0.2384000D+00
EXPONENTS  0.7376000D-01 0.3446000D+02 0.7749000D+01 0.2280000D+01 0.3446000D+02
EXPONENTS  0.7749000D+01 0.2280000D+01 0.3446000D+02 0.7749000D+01 0.2280000D+01
EXPONENTS  0.7156000D+00 0.7156000D+00 0.7156000D+00 0.2140000D+00 0.2140000D+00
EXPONENTS  0.2140000D+00 0.5974000D-01 0.5974000D-01 0.5974000D-01 0.2314000D+01
EXPONENTS  0.2314000D+01 0.2314000D+01 0.2314000D+01 0.2314000D+01 0.2314000D+01
EXPONENTS  0.6450000D+00 0.6450000D+00 0.6450000D+00 0.6450000D+00 0.6450000D+00
EXPONENTS  0.6450000D+00 0.2140000D+00 0.2140000D+00 0.2140000D+00 0.2140000D+00
EXPONENTS  0.2140000D+00 0.2140000D+00 0.1428000D+01 0.1428000D+01 0.1428000D+01
EXPONENTS  0.1428000D+01 0.1428000D+01 0.1428000D+01 0.1428000D+01 0.1428000D+01
EXPONENTS  0.1428000D+01 0.1428000D+01 0.5000000D+00 0.5000000D+00 0.5000000D+00
EXPONENTS  0.5000000D+00 0.5000000D+00 0.5000000D+00 0.5000000D+00 0.5000000D+00
EXPONENTS  0.5000000D+00 0.5000000D+00 0.3387000D+02 0.5095000D+01 0.1159000D+01
EXPONENTS  0.3258000D+00 0.1027000D+00 0.2526000D-01 0.1407000D+01 0.1407000D+01
EXPONENTS  0.1407000D+01 0.3880000D+00 0.3880000D+00 0.3880000D+00 0.1020000D+00
EXPONENTS  0.1020000D+00 0.1020000D+00 0.1057000D+01 0.1057000D+01 0.1057000D+01
EXPONENTS  0.1057000D+01 0.1057000D+01 0.1057000D+01 0.2470000D+00 0.2470000D+00
EXPONENTS  0.2470000D+00 0.2470000D+00 0.2470000D+00 0.2470000D+00 0.3387000D+02
EXPONENTS  0.5095000D+01 0.1159000D+01 0.3258000D+00 0.1027000D+00 0.2526000D-01
EXPONENTS  0.1407000D+01 0.1407000D+01 0.1407000D+01 0.3880000D+00 0.3880000D+00
EXPONENTS  0.3880000D+00 0.1020000D+00 0.1020000D+00 0.1020000D+00 0.1057000D+01
EXPONENTS  0.1057000D+01 0.1057000D+01 0.1057000D+01 0.1057000D+01 0.1057000D+01
EXPONENTS  0.2470000D+00 0.2470000D+00 0.2470000D+00 0.2470000D+00 0.2470000D+00
EXPONENTS  0.2470000D+00
MO    1     MO 0.0        OCC NO =    2.0000000  ORB. ENERGY =    0.000000
  0.48193293D-01  0.89824374D-01  0.15230985D+00  0.23050476D+00  0.28753652D+00
  0.24674911D+00  0.94491801D-01  0.18345130D-03  0.19683121D-02  0.72555690D-02
  0.21214858D-01  0.25564936D-01 -0.30795674D-01 -0.13305300D-01 -0.53795871D-02
 -0.66111321D-04 -0.11191005D+01 -0.10851511D+01 -0.73203651D+00  0.11180280D+01
  0.10841111D+01  0.73133493D+00  0.13237851D+00  0.12836263D+00  0.86592670D-01
 -0.25159984D+00  0.22387604D+00  0.29256502D-01 -0.40259132D-01  0.16926168D-01
  0.33768094D-02 -0.12542825D-02  0.90035479D-04  0.90800628D-04  0.66890614D-02
 -0.27681300D-02 -0.39209314D-02 -0.42693406D-02  0.47681374D-01 -0.10407333D+00
  0.12974390D-02 -0.15236125D-03 -0.11450777D-02 -0.41393547D-03  0.11080399D-01
 -0.10197268D-01 -0.43969071D-04  0.11055225D-03 -0.66583182D-04  0.65425478D-04
  0.60445957D-03  0.17092725D-02  0.67911262D-02  0.53049144D-02  0.66250848D-04
 -0.16081518D-01 -0.86509726D-02 -0.27440325D-02 -0.42918606D-02 -0.72637705D-02
  0.25452800D-02 -0.62734693D-04  0.13344603D-03  0.13229468D-03  0.80605342D-04
 -0.14098817D-03 -0.35496947D-03 -0.39177377D-04 -0.25934993D-03 -0.41914575D-04
 -0.20263865D-03  0.55308812D-04 -0.34317289D-01 -0.61892643D-01 -0.91260667D-01
 -0.63147126D-01 -0.69218585D-02  0.71660410D-04 -0.16420333D-01 -0.25686644D-01
 -0.24380922D-01 -0.89119292D-02 -0.87657393D-02 -0.87911142D-02 -0.13390594D-02
  0.97724702D-04 -0.26542478D-04  0.69237525D-02 -0.56581809D-02 -0.12655716D-02
 -0.82235312D-02 -0.56888948D-02 -0.20051012D-01 -0.60503985D-04  0.11969916D-03
 -0.59195179D-04 -0.91010067D-03 -0.51549899D-03 -0.25870298D-03  0.26917303D-01
  0.48546465D-01  0.71581734D-01  0.53578696D-01  0.66705839D-02 -0.63806646D-04
 -0.14474282D-01 -0.17495886D-01  0.21892194D-01 -0.81124109D-02 -0.69591558D-02
  0.90009001D-02 -0.13190176D-02  0.16428116D-04  0.28472704D-03 -0.62189425D-02
  0.41751190D-02  0.20438235D-02  0.66034121D-02 -0.42517269D-02 -0.17569766D-01
 -0.13364934D-04 -0.98389478D-04  0.11175441D-03  0.86833945D-03 -0.49871962D-03
 -0.48042061D-03
MO    2     MO 0.0        OCC NO =    2.0000000  ORB. ENERGY =    0.000000
  0.37913047D-01  0.70663686D-01  0.11982021D+00  0.18133515D+00  0.22620130D+00
  0.19411437D+00  0.74335492D-01 -0.53731913D-04 -0.57650817D-03 -0.21251177D-02
 -0.62137194D-02 -0.74878340D-02  0.90198895D-02  0.98808259D-02  0.26757869D-01
  0.42040196D-02  0.13061306D+01  0.12665073D+01  0.85437834D+00  0.81881210D+00
  0.79397231D+00  0.53560903D+00  0.64590827D+00  0.62631375D+00  0.42250755D+00
  0.29501992D+00  0.16562738D+00  0.13918026D+00  0.48012078D-01  0.13817236D-01
  0.16321000D-01  0.15127199D-02  0.13755235D-03  0.31500960D-03  0.15885640D-01
 -0.41486143D-03 -0.15470778D-01 -0.23161505D-02 -0.54694241D-01 -0.72823899D-01
  0.15565881D-02  0.30524461D-02 -0.46090342D-02 -0.41137175D-03 -0.13462072D-01
 -0.75200372D-02 -0.48419037D-03  0.73416786D-03 -0.24997748D-03 -0.22428219D-04
 -0.80785989D-03  0.11141707D-02 -0.79358441D-02  0.44853568D-02  0.99425223D-04
  0.17329567D-01 -0.88836188D-02 -0.60976225D-02  0.64779655D-02 -0.45724517D-02
  0.57993468D-02 -0.55910770D-03 -0.13453606D-03  0.95926221D-04  0.23457644D-03
  0.49154789D-04 -0.27082904D-03  0.94734023D-04  0.35445338D-03 -0.16949623D-04
 -0.79846333D-03  0.64738890D-04 -0.32613217D-01 -0.58819280D-01 -0.86728994D-01
 -0.64581787D-01 -0.84981885D-02 -0.43853901D-05  0.19420485D-01 -0.26076553D-01
 -0.15543099D-01  0.10594118D-01 -0.10576441D-01 -0.57403489D-02  0.16133337D-02
  0.37117006D-04  0.37281421D-03  0.60704414D-02 -0.66331815D-02  0.56274013D-03
  0.97882331D-02  0.66874121D-02 -0.16031003D-01 -0.13305831D-04  0.21473305D-04
 -0.81674742D-05  0.10627610D-02  0.62452667D-03  0.96552907D-04  0.85615814D-02
  0.15441165D-01  0.22767988D-01  0.13920101D-01  0.63535400D-03 -0.95674756D-04
  0.19992606D-01 -0.10317163D-02  0.15581963D-01  0.10739082D-01  0.10696265D-02
  0.62185386D-02  0.16141048D-02  0.20322201D-03  0.58037143D-03 -0.17913864D-02
 -0.99353638D-03  0.27849228D-02 -0.10159402D-01  0.74184352D-02 -0.86043434D-02
  0.12864209D-03 -0.23401214D-03  0.10537005D-03 -0.10601238D-02  0.64483036D-03
 -0.52573366D-03
MO    3     MO 0.0        OCC NO =    2.0000000  ORB. ENERGY =    0.000000
 -0.31036256D-01 -0.57846477D-01 -0.98086831D-01 -0.14844399D+00 -0.18517218D+00
 -0.15890528D+00 -0.60852279D-01  0.25213992D-03  0.27052958D-02  0.99722299D-02
  0.29158215D-01  0.35137067D-01 -0.42326321D-01 -0.29850680D-01  0.34580259D-01
  0.70150877D-02 -0.43161228D+00 -0.41851872D+00 -0.28233026D+00 -0.47598639D+00
 -0.46154669D+00 -0.31135667D+00  0.14106965D+01  0.13679011D+01  0.92277798D+00
 -0.98326007D-01 -0.96177762D-01  0.30599739D+00 -0.16832885D-01 -0.79122878D-02
  0.36304515D-01 -0.55363109D-03 -0.71744608D-04  0.76646941D-03  0.42507426D-01
 -0.68946565D-02 -0.35612770D-01  0.52346430D-02  0.12607865D-01  0.42531534D-01
  0.55642177D-02  0.50035831D-02 -0.10567801D-01  0.23063261D-03  0.35162565D-02
  0.44097603D-02 -0.88440198D-03  0.14768475D-02 -0.59244550D-03 -0.18712459D-03
  0.36124778D-03 -0.64349510D-03  0.21525982D-02 -0.25359745D-02  0.13836424D-03
 -0.57600624D-02  0.47653102D-02 -0.17357453D-01 -0.69773211D-03  0.28426133D-02
  0.16942360D-01 -0.23775746D-02  0.59780863D-04 -0.53697007D-04  0.63217900D-03
 -0.12441872D-03  0.17191896D-03  0.15044392D-03 -0.54923864D-04 -0.10827939D-04
 -0.20469809D-02  0.13441690D-03 -0.15888153D-01 -0.28654938D-01 -0.42251689D-01
 -0.29339110D-01 -0.42046730D-02 -0.10395507D-03 -0.65517616D-02 -0.21012582D-01
  0.76838532D-02 -0.36417207D-02 -0.85255980D-02  0.47284958D-02 -0.56962524D-03
 -0.99965749D-04  0.12010320D-02  0.12449215D-02 -0.57586460D-02  0.45137245D-02
 -0.33564243D-02 -0.23297495D-02  0.16013181D-03  0.39835896D-04 -0.23103652D-03
  0.19120063D-03 -0.35637756D-03 -0.26348087D-03  0.92914347D-03 -0.40315552D-01
 -0.72710757D-01 -0.10721197D+00 -0.75859319D-01 -0.96517430D-02 -0.50074998D-04
 -0.92945077D-02  0.37195651D-01 -0.10740542D-01 -0.47084675D-02  0.14286859D-01
 -0.23868648D-02 -0.57713522D-03 -0.15197248D-04  0.10727641D-02  0.59943254D-02
 -0.91746124D-02  0.31802870D-02  0.54948415D-02 -0.33829473D-02  0.14479502D-01
 -0.21785019D-04 -0.97620994D-04  0.11940601D-03  0.39179166D-03 -0.21341140D-03
 -0.65117462D-03
MO    4     MO 0.0        OCC NO =    2.0000000  ORB. ENERGY =    0.000000
  0.40215149D+00  0.74954426D+00  0.12709576D+01  0.19234592D+01  0.23993638D+01
  0.20590111D+01  0.78849186D+00 -0.67006076D-03 -0.71893122D-02 -0.26501159D-01
 -0.77487833D-01 -0.93376607D-01  0.11248202D+00  0.11630351D+00  0.44160306D-01
  0.40218273D-02 -0.15164207D+00 -0.14704180D+00 -0.99193528D-01 -0.17186346D+00
 -0.16664974D+00 -0.11242093D+00  0.27559730D+00  0.26723667D+00  0.18027628D+00
 -0.34500275D-01 -0.34694886D-01  0.58935017D-01 -0.57074833D-02 -0.28332517D-02
  0.91997056D-02 -0.18668142D-03 -0.25473711D-04  0.18663931D-03 -0.45180403D-02
  0.12985658D-01 -0.84676179D-02 -0.42266877D-03  0.61940722D-02  0.15522531D-01
 -0.11099662D-02  0.29803558D-02 -0.18703896D-02 -0.19901126D-03  0.15922890D-02
  0.15813666D-02 -0.97434336D-04  0.18347225D-03 -0.86037916D-04 -0.30238412D-04
  0.11253867D-03 -0.23805735D-03  0.99724399D-03 -0.91952060D-03  0.17276658D-02
 -0.24162430D-02  0.17657031D-02  0.38360009D-03 -0.57548897D-03  0.99285869D-03
 -0.55665976D-02  0.34176432D-03  0.49776001D-05 -0.18631685D-04 -0.23632112D-03
  0.36207139D-04  0.50622043D-04 -0.26849647D-03 -0.51139939D-04  0.52730132D-05
  0.97745984D-03 -0.84038960D-04  0.82359056D-02  0.14853795D-01  0.21901912D-01
  0.36206400D-02 -0.21804377D-02 -0.70416204D-04 -0.22293423D-02  0.63535634D-02
  0.10667917D-01 -0.12153883D-02 -0.16448451D-02  0.22291049D-02 -0.19046615D-03
 -0.31464549D-03  0.16740443D-03 -0.86187421D-04 -0.13364162D-02  0.14226036D-02
 -0.10903490D-02 -0.79792036D-03  0.20378104D-02  0.10031287D-03 -0.16014039D-03
  0.59827517D-04 -0.12023844D-03 -0.86572426D-04  0.25498258D-04 -0.62433552D-03
 -0.11260148D-02 -0.16603082D-02 -0.13199521D-01 -0.41339016D-02 -0.50520151D-04
 -0.23119114D-02 -0.42763315D-03  0.39746749D-02 -0.15064828D-02  0.37251873D-02
 -0.32635781D-03 -0.21126392D-03  0.27109177D-03  0.12336989D-03  0.16417953D-02
 -0.25854990D-02  0.94370366D-03  0.16973294D-02 -0.10489876D-02  0.32606142D-02
  0.75946063D-04 -0.11103723D-03  0.35091169D-04  0.15386115D-03 -0.88384746D-04
  0.69209858D-04
MO    5     MO 0.0        OCC NO =    2.0000000  ORB. ENERGY =    0.000000
 -0.30462014D+00 -0.56776185D+00 -0.96272001D+00 -0.14569744D+01 -0.18174607D+01
 -0.15596517D+01 -0.59726373D+00 -0.15626211D-02 -0.16765899D-01 -0.61802260D-01
 -0.18070618D+00 -0.21775974D+00  0.26231468D+00  0.12544299D+00  0.84722967D-01
  0.69308786D-02 -0.16626023D+00 -0.16121649D+00 -0.10875569D+00  0.10041518D+00
  0.97368944D-01  0.65684514D-01  0.41664678D+00  0.40400722D+00  0.27254089D+00
 -0.37688956D-01  0.20119997D-01  0.88465846D-01 -0.59955670D-02  0.14989682D-02
  0.15701737D-01 -0.19551327D-03  0.59852257D-05  0.32302339D-03 -0.79966182D-02
  0.20905045D-01 -0.12908426D-01 -0.23390161D-02  0.74376233D-02 -0.94324656D-02
 -0.30196567D-02  0.58527990D-02 -0.28331422D-02 -0.63157055D-03  0.18885770D-02
 -0.94986342D-03 -0.11830630D-03  0.25673013D-03 -0.13842383D-03 -0.18058770D-04
  0.10415282D-03  0.15414155D-03  0.11072704D-02  0.44860920D-03  0.18483818D-02
 -0.28539712D-02 -0.67977954D-03 -0.57975799D-03 -0.46784009D-03 -0.66604805D-03
 -0.49653875D-02  0.31539134D-03  0.24067647D-04  0.12666344D-04 -0.15889870D-03
  0.59734999D-06 -0.36965870D-04  0.45781790D-04 -0.72800292D-04 -0.10331607D-05
  0.43091432D-03 -0.19486434D-04  0.89029522D-02  0.16056841D-01  0.23675803D-01
 -0.52492565D-02 -0.55099260D-02 -0.10125456D-03 -0.23821662D-02  0.11737389D-01
  0.15065806D-01 -0.12703518D-02 -0.23361302D-02  0.26923986D-02 -0.19574749D-03
 -0.44116668D-03  0.28820019D-03 -0.13115625D-02 -0.43525824D-03  0.17468207D-02
 -0.11369443D-02 -0.84529055D-03  0.59809503D-02  0.13273893D-03 -0.22708989D-03
  0.94350959D-04 -0.12560536D-03 -0.90983867D-04 -0.14323681D-04  0.14484772D-01
  0.26123883D-01  0.38519651D-01  0.54142825D-02 -0.42750607D-02 -0.11422403D-03
 -0.12816288D-02 -0.15664070D-01  0.19226768D-01 -0.12957344D-02  0.88141509D-03
  0.43099219D-02 -0.22314709D-03  0.44881131D-03  0.31547884D-03 -0.25107127D-02
  0.46744418D-03  0.20432685D-02  0.72420246D-03 -0.20411889D-03 -0.93712971D-02
  0.13294501D-03 -0.24387070D-03  0.11092569D-03  0.17039413D-03 -0.88447489D-04
 -0.56839831D-04
END DATA
 TOTAL ENERGY =    -76.464232549334 THE VIRIAL(-V/T)=   2.00453858
