 63
GAUSSIAN              5 MOL ORBITALS    126 PRIMITIVES        3 NUCLEI   B3LYP   B3LYP   B3LYP   B3LYP
  O    1    (CENTRE  1)   0.00000000  0.00000000  0.00815606  CHARGE =  8.0
  H    2    (CENTRE  2)   0.09448631 -1.44255835 -1.09730160  CHARGE =  1.0
  H    3    (CENTRE  3)   0.09448631  1.44255835 -1.09730160  CHARGE =  1.0
CENTRE ASSIGNMENTS    1  1  1  1  1  1  1  1  1  1  1  1  1  1  1  1  1  1  1  1
CENTRE ASSIGNMENTS    1  1  1  1  1  1  1  1  1  1  1  1  1  1  1  1  1  1  1  1
CENTRE ASSIGNMENTS    1  1  1  1  1  1  1  1  1  1  1  1  1  1  1  1  1  1  1  1
CENTRE ASSIGNMENTS    1  1  1  1  1  1  1  1  1  1  1  1  2  2  2  2  2  2  2  2
CENTRE ASSIGNMENTS    2  2  2  2  2  2  2  2  2  2  2  2  2  2  2  2  2  2  2  3
CENTRE ASSIGNMENTS    3  3  3  3  3  3  3  3  3  3  3  3  3  3  3  3  3  3  3  3
CENTRE ASSIGNMENTS    3  3  3  3  3  3
TYPE ASSIGNMENTS      1  1  1  1  1  1  1  1  1  1  1  1  1  1  1  1  2  2  2  3
TYPE ASSIGNMENTS      3  3  4  4  4  2  3  4  2  3  4  2  3  4  5  6  7  8  9 10
TYPE ASSIGNMENTS      5  6  7  8  9 10  5  6  7  8  9 10 11 12 13 17 14 15 18 19
TYPE ASSIGNMENTS     16 20 11 12 13 17 14 15 18 19 16 20  1  1  1  1  1  1  2  3
TYPE ASSIGNMENTS      4  2  3  4  2  3  4  5  6  7  8  9 10  5  6  7  8  9 10  1
TYPE ASSIGNMENTS      1  1  1  1  1  2  3  4  2  3  4  2  3  4  5  6  7  8  9 10
TYPE ASSIGNMENTS      5  6  7  8  9 10
EXPONENTS  0.1533000D+05 0.2299000D+04 0.5224000D+03 0.1473000D+03 0.4755000D+02
EXPONENTS  0.1676000D+02 0.6207000D+01 0.5224000D+03 0.1473000D+03 0.4755000D+02
EXPONENTS  0.1676000D+02 0.6207000D+01 0.6882000D+00 0.1752000D+01 0.2384000D+00
EXPONENTS  0.7376000D-01 0.3446000D+02 0.7749000D+01 0.2280000D+01 0.3446000D+02
EXPONENTS  0.7749000D+01 0.2280000D+01 0.3446000D+02 0.7749000D+01 0.2280000D+01
EXPONENTS  0.7156000D+00 0.7156000D+00 0.7156000D+00 0.2140000D+00 0.2140000D+00
EXPONENTS  0.2140000D+00 0.5974000D-01 0.5974000D-01 0.5974000D-01 0.2314000D+01
EXPONENTS  0.2314000D+01 0.2314000D+01 0.2314000D+01 0.2314000D+01 0.2314000D+01
EXPONENTS  0.6450000D+00 0.6450000D+00 0.6450000D+00 0.6450000D+00 0.6450000D+00
EXPONENTS  0.6450000D+00 0.2140000D+00 0.2140000D+00 0.2140000D+00 0.2140000D+00
EXPONENTS  0.2140000D+00 0.2140000D+00 0.1428000D+01 0.1428000D+01 0.1428000D+01
EXPONENTS  0.1428000D+01 0.1428000D+01 0.1428000D+01 0.1428000D+01 0.1428000D+01
EXPONENTS  0.1428000D+01 0.1428000D+01 0.5000000D+00 0.5000000D+00 0.5000000D+00
EXPONENTS  0.5000000D+00 0.5000000D+00 0.5000000D+00 0.5000000D+00 0.5000000D+00
EXPONENTS  0.5000000D+00 0.5000000D+00 0.3387000D+02 0.5095000D+01 0.1159000D+01
EXPONENTS  0.3258000D+00 0.1027000D+00 0.2526000D-01 0.1407000D+01 0.1407000D+01
EXPONENTS  0.1407000D+01 0.3880000D+00 0.3880000D+00 0.3880000D+00 0.1020000D+00
EXPONENTS  0.1020000D+00 0.1020000D+00 0.1057000D+01 0.1057000D+01 0.1057000D+01
EXPONENTS  0.1057000D+01 0.1057000D+01 0.1057000D+01 0.2470000D+00 0.2470000D+00
EXPONENTS  0.2470000D+00 0.2470000D+00 0.2470000D+00 0.2470000D+00 0.3387000D+02
EXPONENTS  0.5095000D+01 0.1159000D+01 0.3258000D+00 0.1027000D+00 0.2526000D-01
EXPONENTS  0.1407000D+01 0.1407000D+01 0.1407000D+01 0.3880000D+00 0.3880000D+00
EXPONENTS  0.3880000D+00 0.1020000D+00 0.1020000D+00 0.1020000D+00 0.1057000D+01
EXPONENTS  0.1057000D+01 0.1057000D+01 0.1057000D+01 0.1057000D+01 0.1057000D+01
EXPONENTS  0.2470000D+00 0.2470000D+00 0.2470000D+00 0.2470000D+00 0.2470000D+00
EXPONENTS  0.2470000D+00
MO    1     MO 0.0        OCC NO =    2.0000000  ORB. ENERGY =    0.000000
  0.44464991D+00  0.82875431D+00  0.14052694D+01  0.21267258D+01  0.26529228D+01
  0.22766025D+01  0.87181780D+00  0.83804418D-03  0.89916641D-02  0.33144967D-01
  0.96913939D-01  0.11678601D+00 -0.14068112D+00 -0.33828644D-01 -0.21222735D-01
  0.52118470D-03 -0.89303643D-01 -0.86594494D-01 -0.58416134D-01 -0.45304753D-01
 -0.43930371D-01 -0.29635169D-01  0.48661331D+00  0.47185122D+00  0.31830805D+00
 -0.20012763D-01 -0.93800682D-02  0.10807579D+00 -0.26978655D-02 -0.88658609D-03
  0.10825641D-01 -0.74801316D-04 -0.88338994D-05  0.21024279D-03  0.21612274D-01
 -0.87209662D-02 -0.12891307D-01 -0.36163529D-03  0.79175014D-02  0.42313933D-02
  0.44974732D-02 -0.38474840D-03 -0.41127248D-02 -0.47400392D-04  0.19926393D-02
  0.55452833D-03 -0.23614111D-03  0.44223648D-03 -0.20609537D-03  0.26238404D-05
  0.28640011D-04 -0.30720614D-04  0.92597875D-03 -0.21168651D-03 -0.16239058D-03
 -0.12662440D-02  0.46113616D-03 -0.73351227D-02 -0.15116923D-02  0.17392338D-03
  0.78222944D-02  0.49481621D-04  0.42015026D-04 -0.37159756D-05  0.23110666D-03
  0.13279422D-04  0.26535760D-04 -0.36071047D-03 -0.13932450D-03 -0.15387834D-04
 -0.33260952D-03  0.72208261D-05 -0.17198100D-01 -0.31017481D-01 -0.45735258D-01
 -0.23203074D-01 -0.13818297D-02  0.15983089D-05  0.16543403D-04 -0.18135813D-01
 -0.79202633D-02 -0.24473914D-03 -0.50004245D-02 -0.13437926D-02 -0.83189528D-04
  0.67004132D-04  0.32410720D-03  0.29837411D-02 -0.36522382D-02  0.66849714D-03
  0.34696997D-03  0.15207547D-03 -0.79037412D-02  0.11544978D-04 -0.38210218D-04
  0.26665241D-04 -0.49787211D-04 -0.24245778D-04  0.18016720D-03 -0.19524700D-01
 -0.35213601D-01 -0.51922434D-01 -0.27501822D-01 -0.18999181D-02  0.89162657D-05
  0.16301987D-03  0.19428411D-01 -0.96340074D-02 -0.18599599D-03  0.54724825D-02
 -0.20310180D-02 -0.82172264D-04 -0.84020466D-04  0.31218116D-03  0.34200950D-02
 -0.38744642D-02  0.45436916D-03 -0.45875353D-03  0.26409299D-03  0.92114313D-02
  0.15233441D-04 -0.29112711D-04  0.13879269D-04  0.46657499D-04 -0.21406939D-04
 -0.14350188D-03
MO    2     MO 0.0        OCC NO =    2.0000000  ORB. ENERGY =    0.000000
  0.22687738D+00  0.42286213D+00  0.71702217D+00  0.10851368D+01  0.13536226D+01
  0.11616096D+01  0.44483477D+00 -0.88578063D-04 -0.95038449D-03 -0.35032962D-02
 -0.10243433D-01 -0.12343834D-01  0.14869457D-01  0.35554633D-01 -0.39416000D-01
 -0.75466299D-02  0.17371097D-01  0.16844121D-01  0.11362944D-01 -0.70367567D-01
 -0.68232870D-01 -0.46029491D-01 -0.13739114D+01 -0.13322319D+01 -0.89871578D+00
  0.28793278D-02 -0.14569168D-01 -0.29807922D+00 -0.65659992D-03 -0.13770499D-02
 -0.35813922D-01 -0.58829840D-04 -0.13720856D-04 -0.70625618D-03 -0.40366285D-01
  0.39069760D-02  0.36459309D-01 -0.56169373D-03 -0.90882715D-02  0.65722210D-02
 -0.53986650D-02 -0.53533997D-02  0.10752065D-01 -0.73622523D-04 -0.17115451D-02
  0.86129615D-03  0.71589375D-03 -0.12641370D-02  0.54824325D-03  0.40753620D-05
  0.99939220D-04 -0.47715410D-04 -0.87612408D-03 -0.32879254D-03 -0.90055478D-03
 -0.23452062D-04  0.71623897D-03  0.17092364D-01  0.26518243D-02  0.27013865D-03
 -0.14390699D-01  0.76855099D-04  0.14820017D-04 -0.57716717D-05 -0.66079670D-03
 -0.19513979D-03  0.41215474D-04  0.72501696D-04  0.15067974D-03 -0.23900459D-04
  0.19098884D-02  0.11215423D-04  0.28556815D-01  0.51503392D-01  0.75941722D-01
  0.54559653D-01  0.81584412D-02  0.88181369D-04 -0.16656822D-02  0.26278920D-01
  0.32821037D-02 -0.78980047D-03  0.11519147D-01  0.42098163D-03 -0.36830051D-04
  0.16995967D-03 -0.93103026D-03 -0.35857571D-02  0.64327404D-02 -0.28469833D-02
 -0.13437728D-02 -0.64429582D-03  0.76622963D-02 -0.10580180D-03  0.21719778D-03
 -0.11139598D-03 -0.39102520D-04 -0.44455018D-04 -0.38654362D-03  0.24943128D-01
  0.44985958D-01  0.66331769D-01  0.47882816D-01  0.73537438D-02  0.99547656D-04
 -0.14381742D-02 -0.24271250D-01  0.62030780D-03 -0.69856031D-03 -0.10785944D-01
 -0.64642027D-03 -0.35250032D-04 -0.19638952D-03 -0.94955385D-03 -0.29080100D-02
  0.60875780D-02 -0.31795680D-02  0.11701500D-02 -0.47030966D-03 -0.56311854D-02
 -0.10007286D-03  0.23132808D-03 -0.13125522D-03  0.34241436D-04 -0.40045719D-04
  0.44349238D-03
MO    3     MO 0.0        OCC NO =    2.0000000  ORB. ENERGY =    0.000000
  0.14451706D-01  0.26935605D-01  0.45673103D-01  0.69121384D-01  0.86223479D-01
  0.73992573D-01  0.28335224D-01  0.26920964D-03  0.28884427D-02  0.10647344D-01
  0.31132209D-01  0.37515825D-01 -0.45191787D-01 -0.26117048D-01 -0.19025976D-01
 -0.19079140D-02  0.17116158D+01  0.16596916D+01  0.11196182D+01  0.37597565D+00
  0.36456991D+00  0.24593671D+00 -0.38149495D-01 -0.36992178D-01 -0.24954705D-01
  0.38636631D+00  0.77843426D-01 -0.63918908D-02  0.63475151D-01  0.73576116D-02
 -0.45329110D-04  0.20291438D-02  0.73310874D-04  0.68146859D-04  0.42819324D-02
 -0.32023557D-02 -0.10795767D-02  0.30011435D-02 -0.69780771D-01 -0.35115539D-01
  0.17353389D-02 -0.15061261D-02 -0.22921281D-03  0.39336696D-03 -0.17923277D-01
 -0.46019266D-02  0.19461115D-03 -0.15851895D-03 -0.36092205D-04 -0.21774760D-04
 -0.11725490D-02  0.25494462D-03 -0.10124748D-01  0.17567467D-02  0.27660589D-03
  0.21227390D-01 -0.38268825D-02 -0.29079435D-02  0.91468538D-02 -0.14433575D-02
  0.20781259D-02 -0.41063869D-03 -0.35800400D-03  0.30838184D-04  0.15263678D-04
  0.53125671D-03 -0.22021530D-03 -0.18733696D-03  0.54275530D-03  0.12770074D-03
  0.14154593D-03 -0.59924281D-04 -0.92859421D-02 -0.16747579D-01 -0.24694295D-01
 -0.13150283D-01 -0.56256501D-03  0.58285929D-04  0.24305157D-01 -0.53002953D-02
 -0.76890317D-02  0.13061193D-01 -0.61816525D-03 -0.22109524D-02  0.19864404D-02
  0.16973521D-03  0.69051630D-05  0.94918528D-03 -0.24213477D-03 -0.70705051D-03
  0.12156670D-01  0.91144441D-02 -0.46112158D-02 -0.79376852D-04  0.90410780D-04
 -0.11033928D-04  0.12378651D-02  0.76330575D-03 -0.75894540D-04  0.10022078D-01
  0.18075230D-01  0.26651917D-01  0.22524222D-01  0.37369532D-02 -0.24444219D-05
  0.23089576D-01 -0.54267348D-02  0.65330094D-02  0.12573695D-01 -0.32993562D-02
  0.34922023D-02  0.19779983D-02 -0.28519838D-04  0.10587716D-03 -0.26720342D-02
  0.16020767D-02  0.10699575D-02 -0.11229000D-01  0.81848318D-02 -0.62410598D-02
 -0.10998672D-03  0.14912268D-04  0.95074451D-04 -0.12118922D-02  0.73974675D-03
 -0.22838408D-03
MO    4     MO 0.0        OCC NO =    2.0000000  ORB. ENERGY =    0.000000
  0.86823329D-01  0.16182441D+00  0.27439603D+00  0.41526921D+00  0.51801561D+00
  0.44453446D+00  0.17023308D+00 -0.14255393D-02 -0.15295101D-01 -0.56380622D-01
 -0.16485363D+00 -0.19865664D+00  0.23930298D+00  0.15749329D+00  0.90705958D-01
  0.82397166D-02  0.36145261D+00  0.35048745D+00  0.23643676D+00 -0.40339448D+00
 -0.39115696D+00 -0.26387217D+00  0.66803960D+00  0.64777370D+00  0.43698431D+00
  0.82361990D-01 -0.83520326D-01  0.14232911D+00  0.13730133D-01 -0.78941813D-02
  0.21299120D-01  0.46239787D-03 -0.78657228D-04  0.42325792D-03 -0.14400221D-03
  0.18273246D-01 -0.18129244D-01 -0.32200083D-02 -0.14227676D-01  0.37676416D-01
 -0.19653848D-02  0.65818671D-02 -0.46164823D-02 -0.42205409D-03 -0.40175159D-02
  0.49375320D-02 -0.28321984D-03  0.52013282D-03 -0.23691298D-03  0.23362731D-04
 -0.30498143D-03 -0.27353700D-03 -0.22616932D-02 -0.18848612D-02  0.27195695D-02
  0.56679409D-02  0.41059662D-02 -0.31966556D-02  0.11171388D-02  0.15486175D-02
 -0.49620531D-02  0.44058540D-03 -0.84018568D-04 -0.33087125D-04 -0.10940461D-04
  0.12277230D-03  0.23627497D-03 -0.88607808D-04  0.12928340D-03 -0.13701360D-03
  0.12142919D-03  0.64294389D-04  0.14853724D-01  0.26789303D-01  0.39500812D-01
  0.66754668D-02 -0.42205420D-02 -0.15708196D-03  0.39013097D-02  0.11371624D-01
  0.22142080D-01  0.26754650D-02 -0.23993447D-02  0.55956578D-02  0.44840025D-03
 -0.56449631D-03  0.44993857D-03 -0.20543633D-02 -0.12762424D-02  0.33306057D-02
  0.21949403D-02  0.12358474D-02  0.80362700D-02  0.10231621D-03 -0.26628282D-03
  0.16396661D-03  0.28230536D-03  0.17928415D-03  0.22732103D-03 -0.58623749D-02
 -0.10573035D-01 -0.15589933D-01 -0.31600678D-01 -0.88336118D-02 -0.91922722D-04
  0.52055393D-02  0.13769752D-03  0.68828656D-02  0.31985153D-02  0.66025599D-02
 -0.52341175D-03  0.45745798D-03  0.41298251D-03  0.34374883D-03  0.18309414D-02
 -0.32549470D-02  0.14240056D-02 -0.31902635D-02  0.22332537D-02  0.36074312D-02
  0.13515836D-03 -0.18527841D-03  0.50120047D-04 -0.31017238D-03  0.20456124D-03
  0.99147767D-04
MO    5     MO 0.0        OCC NO =    2.0000000  ORB. ENERGY =    0.000000
  0.48263253D-01  0.89954769D-01  0.15253095D+00  0.23083938D+00  0.28795393D+00
  0.24710731D+00  0.94628972D-01 -0.47347600D-03 -0.50800867D-02 -0.18726156D-01
 -0.54754182D-01 -0.65981452D-01  0.79481651D-01  0.54595840D-01  0.29390199D-01
  0.25958966D-02 -0.36769726D+00 -0.35654266D+00 -0.24052157D+00  0.13612867D+01
  0.13199902D+01  0.89045760D+00  0.15367362D+00  0.14901172D+00  0.10052243D+00
 -0.82821651D-01  0.28184597D+00  0.32130784D-01 -0.13586323D-01  0.26639542D-01
  0.48331513D-02 -0.42893864D-03  0.26543506D-03  0.77093103D-04 -0.25926431D-02
  0.62111513D-02 -0.36185082D-02  0.10866174D-01  0.14850424D-01 -0.12714206D+00
 -0.11910823D-02  0.20768725D-02 -0.88579019D-03  0.14242551D-02  0.37375747D-02
 -0.16662094D-01 -0.10853040D-03  0.14728649D-03 -0.38756092D-04 -0.78839391D-04
  0.23959100D-03  0.92307234D-03  0.21116820D-02  0.63606138D-02  0.67754673D-03
 -0.42265768D-02 -0.13855909D-01  0.49529231D-03 -0.21084692D-02 -0.52259326D-02
 -0.25279325D-02 -0.14867904D-02  0.76144494D-04  0.11165513D-03 -0.33924167D-04
 -0.11999222D-03 -0.79732866D-03  0.17226425D-04 -0.10844127D-03  0.46236326D-03
  0.84546077D-04 -0.21696652D-03 -0.32951825D-01 -0.59429973D-01 -0.87629460D-01
 -0.67766555D-01 -0.98098264D-02  0.70363874D-04 -0.30722983D-02 -0.17091094D-01
 -0.21477794D-01 -0.18328381D-02 -0.83938610D-02 -0.98120256D-02 -0.40258558D-03
  0.95421552D-04 -0.11516706D-03  0.66991737D-02 -0.39994686D-02 -0.26997051D-02
 -0.80372143D-03 -0.21391984D-03 -0.19156386D-01  0.11187490D-03  0.65699247D-04
 -0.17757415D-03 -0.20699628D-03 -0.11098591D-03 -0.56898169D-03  0.36956297D-01
  0.66652203D-01  0.98278635D-01  0.61399335D-01  0.57573441D-02 -0.14952117D-03
 -0.74735245D-02 -0.21748027D-01  0.30015636D-01 -0.35979129D-02 -0.57902225D-02
  0.10837261D-01 -0.43315163D-03  0.41587381D-03  0.24317865D-03 -0.64120956D-02
  0.26778271D-02  0.37342684D-02  0.41625185D-02 -0.35797467D-02 -0.20136208D-01
  0.10464342D-05 -0.20765655D-03  0.20661011D-03  0.30103575D-03 -0.19628545D-03
 -0.53271318D-03
END DATA
 TOTAL ENERGY =    -76.466194010053 THE VIRIAL(-V/T)=   2.00602215
