 63
GAUSSIAN              5 MOL ORBITALS    126 PRIMITIVES        3 NUCLEI   B3LYP   B3LYP   B3LYP
  O    1    (CENTRE  1)   0.00000000  0.00000000  0.00815606  CHARGE =  8.0
  H    2    (CENTRE  2)  -0.09448631 -1.44255835 -1.09730160  CHARGE =  1.0
  H    3    (CENTRE  3)   0.09448631  1.44255835 -1.09730160  CHARGE =  1.0
CENTRE ASSIGNMENTS    1  1  1  1  1  1  1  1  1  1  1  1  1  1  1  1  1  1  1  1
CENTRE ASSIGNMENTS    1  1  1  1  1  1  1  1  1  1  1  1  1  1  1  1  1  1  1  1
CENTRE ASSIGNMENTS    1  1  1  1  1  1  1  1  1  1  1  1  1  1  1  1  1  1  1  1
CENTRE ASSIGNMENTS    1  1  1  1  1  1  1  1  1  1  1  1  2  2  2  2  2  2  2  2
CENTRE ASSIGNMENTS    2  2  2  2  2  2  2  2  2  2  2  2  2  2  2  2  2  2  2  3
CENTRE ASSIGNMENTS    3  3  3  3  3  3  3  3  3  3  3  3  3  3  3  3  3  3  3  3
CENTRE ASSIGNMENTS    3  3  3  3  3  3
TYPE ASSIGNMENTS      1  1  1  1  1  1  1  1  1  1  1  1  1  1  1  1  2  2  2  3
TYPE ASSIGNMENTS      3  3  4  4  4  2  3  4  2  3  4  2  3  4  5  6  7  8  9 10
TYPE ASSIGNMENTS      5  6  7  8  9 10  5  6  7  8  9 10 11 12 13 17 14 15 18 19
TYPE ASSIGNMENTS     16 20 11 12 13 17 14 15 18 19 16 20  1  1  1  1  1  1  2  3
TYPE ASSIGNMENTS      4  2  3  4  2  3  4  5  6  7  8  9 10  5  6  7  8  9 10  1
TYPE ASSIGNMENTS      1  1  1  1  1  2  3  4  2  3  4  2  3  4  5  6  7  8  9 10
TYPE ASSIGNMENTS      5  6  7  8  9 10
EXPONENTS  0.1533000D+05 0.2299000D+04 0.5224000D+03 0.1473000D+03 0.4755000D+02
EXPONENTS  0.1676000D+02 0.6207000D+01 0.5224000D+03 0.1473000D+03 0.4755000D+02
EXPONENTS  0.1676000D+02 0.6207000D+01 0.6882000D+00 0.1752000D+01 0.2384000D+00
EXPONENTS  0.7376000D-01 0.3446000D+02 0.7749000D+01 0.2280000D+01 0.3446000D+02
EXPONENTS  0.7749000D+01 0.2280000D+01 0.3446000D+02 0.7749000D+01 0.2280000D+01
EXPONENTS  0.7156000D+00 0.7156000D+00 0.7156000D+00 0.2140000D+00 0.2140000D+00
EXPONENTS  0.2140000D+00 0.5974000D-01 0.5974000D-01 0.5974000D-01 0.2314000D+01
EXPONENTS  0.2314000D+01 0.2314000D+01 0.2314000D+01 0.2314000D+01 0.2314000D+01
EXPONENTS  0.6450000D+00 0.6450000D+00 0.6450000D+00 0.6450000D+00 0.6450000D+00
EXPONENTS  0.6450000D+00 0.2140000D+00 0.2140000D+00 0.2140000D+00 0.2140000D+00
EXPONENTS  0.2140000D+00 0.2140000D+00 0.1428000D+01 0.1428000D+01 0.1428000D+01
EXPONENTS  0.1428000D+01 0.1428000D+01 0.1428000D+01 0.1428000D+01 0.1428000D+01
EXPONENTS  0.1428000D+01 0.1428000D+01 0.5000000D+00 0.5000000D+00 0.5000000D+00
EXPONENTS  0.5000000D+00 0.5000000D+00 0.5000000D+00 0.5000000D+00 0.5000000D+00
EXPONENTS  0.5000000D+00 0.5000000D+00 0.3387000D+02 0.5095000D+01 0.1159000D+01
EXPONENTS  0.3258000D+00 0.1027000D+00 0.2526000D-01 0.1407000D+01 0.1407000D+01
EXPONENTS  0.1407000D+01 0.3880000D+00 0.3880000D+00 0.3880000D+00 0.1020000D+00
EXPONENTS  0.1020000D+00 0.1020000D+00 0.1057000D+01 0.1057000D+01 0.1057000D+01
EXPONENTS  0.1057000D+01 0.1057000D+01 0.1057000D+01 0.2470000D+00 0.2470000D+00
EXPONENTS  0.2470000D+00 0.2470000D+00 0.2470000D+00 0.2470000D+00 0.3387000D+02
EXPONENTS  0.5095000D+01 0.1159000D+01 0.3258000D+00 0.1027000D+00 0.2526000D-01
EXPONENTS  0.1407000D+01 0.1407000D+01 0.1407000D+01 0.3880000D+00 0.3880000D+00
EXPONENTS  0.3880000D+00 0.1020000D+00 0.1020000D+00 0.1020000D+00 0.1057000D+01
EXPONENTS  0.1057000D+01 0.1057000D+01 0.1057000D+01 0.1057000D+01 0.1057000D+01
EXPONENTS  0.2470000D+00 0.2470000D+00 0.2470000D+00 0.2470000D+00 0.2470000D+00
EXPONENTS  0.2470000D+00
MO    1     MO 0.0        OCC NO =    2.0000000  ORB. ENERGY =    0.000000
 -0.39837934D-02 -0.74251359D-02 -0.12590361D-01 -0.19054173D-01 -0.23768579D-01
 -0.20396977D-01 -0.78109586D-02 -0.25653409D-03 -0.27524425D-02 -0.10146021D-01
 -0.29666371D-01 -0.35749420D-01  0.43063964D-01  0.25867060D-01 -0.32694724D-02
 -0.19596239D-02  0.54743795D-01  0.53083066D-01  0.35809523D-01  0.13713873D+01
  0.13297844D+01  0.89706467D+00 -0.47463463D+00 -0.46023593D+00 -0.31047244D+00
  0.10673742D-01  0.28391932D+00 -0.10359165D+00  0.45067243D-03  0.26781810D-01
 -0.11847488D-01 -0.24295762D-04  0.26749518D-03 -0.23385611D-03 -0.16413931D-01
  0.37765611D-02  0.12637370D-01  0.26565136D-02 -0.69684529D-02 -0.12826157D+00
 -0.26117958D-02 -0.12071018D-02  0.38188975D-02  0.18481889D-03 -0.73034851D-03
 -0.16802622D-01  0.24445106D-03 -0.43778309D-03  0.19333203D-03 -0.89775790D-04
  0.86883180D-04  0.94850653D-03 -0.70608869D-03  0.63772730D-02 -0.12000116D-03
  0.26520031D-02 -0.13853972D-01  0.64974232D-02 -0.53373708D-03 -0.52778472D-02
 -0.61374198D-02 -0.16622453D-02 -0.45177604D-04  0.11148668D-03 -0.24728882D-03
  0.11662791D-03 -0.79905018D-03  0.89647972D-04  0.18904903D-04  0.46459014D-03
  0.65221849D-03  0.74041942D-04 -0.23515360D-01 -0.42410920D-01 -0.62534877D-01
 -0.45574902D-01 -0.55184231D-02  0.13161606D-03 -0.10243846D-02 -0.82244263D-02
 -0.23042444D-01 -0.46363139D-03 -0.30476008D-02 -0.10028077D-01 -0.22833338D-04
  0.27453452D-03 -0.50726607D-03  0.50725901D-02 -0.92868669D-03 -0.41439034D-02
 -0.10328052D-02 -0.12368691D-02 -0.16156200D-01  0.25121277D-04  0.20463337D-03
 -0.22975465D-03 -0.18544835D-05 -0.62245302D-04 -0.70989091D-03  0.47012244D-01
  0.84788519D-01  0.12502062D+00  0.84737535D-01  0.10158641D-01 -0.89307049D-04
 -0.25206431D-02 -0.31068799D-01  0.28917819D-01 -0.10022311D-02 -0.11271139D-01
  0.10807311D-01 -0.25027152D-04  0.24196321D-03 -0.14627177D-03 -0.81833970D-02
  0.58523335D-02  0.23310635D-02  0.20897023D-02 -0.17181602D-02 -0.23504264D-01
 -0.80251096D-04 -0.77108604D-04  0.15735970D-03  0.25992681D-04 -0.41994327D-04
 -0.40094783D-03
MO    2     MO 0.0        OCC NO =    2.0000000  ORB. ENERGY =    0.000000
  0.15227862D+00  0.28382231D+00  0.48126062D+00  0.72833677D+00  0.90854271D+00
  0.77966481D+00  0.29857020D+00 -0.39539109D-03 -0.42422869D-02 -0.15637868D-01
 -0.45724209D-01 -0.55099896D-01  0.66373663D-01  0.58430775D-01 -0.21291267D-01
 -0.59780963D-02 -0.83876453D-02 -0.81331945D-02 -0.54866050D-02 -0.49998964D+00
 -0.48482176D+00 -0.32705790D+00 -0.12573617D+01 -0.12192179D+01 -0.82247721D+00
 -0.12791404D-02 -0.10352746D+00 -0.27355312D+00  0.26472136D-03 -0.97776535D-02
 -0.32020979D-01  0.22596445D-04 -0.98280695D-04 -0.63192855D-03 -0.40743946D-01
  0.72932508D-02  0.33450695D-01  0.63205014D-02  0.20651827D-02  0.46722643D-01
 -0.59904597D-02 -0.40092163D-02  0.99996760D-02  0.26069812D-03  0.14411350D-03
  0.61247438D-02  0.65528214D-03 -0.11623055D-02  0.50702340D-03 -0.23916186D-03
 -0.39717091D-04 -0.34474464D-03  0.18886014D-03 -0.23310130D-02 -0.50198702D-03
 -0.82279759D-03  0.50757704D-02  0.16657476D-01  0.25621716D-03  0.19172686D-02
 -0.15151515D-01 -0.41846656D-02  0.14000577D-04 -0.40824443D-04 -0.64959831D-03
 -0.38876298D-04  0.29185138D-03  0.12756760D-03 -0.31254327D-05 -0.16937805D-03
  0.18212273D-02  0.22286476D-03  0.40854211D-01  0.73682252D-01  0.10864444D+00
  0.73164009D-01  0.94200333D-02  0.29777107D-04  0.25632526D-02  0.33985985D-01
  0.14417010D-01  0.10408267D-02  0.13090149D-01  0.42492528D-02  0.28504071D-04
  0.10113034D-05 -0.80218755D-03 -0.58655830D-02  0.72591338D-02 -0.13935508D-02
  0.18955472D-02  0.11006162D-02  0.14908541D-01 -0.10181583D-03  0.13441062D-03
 -0.32594786D-04  0.48934695D-04 -0.21094343D-05 -0.19880240D-03  0.15179656D-01
  0.27377134D-01  0.40367569D-01  0.25725750D-01  0.37130009D-02  0.11020115D-03
 -0.95324604D-03 -0.19702800D-01 -0.44983666D-02 -0.33323616D-03 -0.78890195D-02
 -0.33355514D-02  0.15789301D-04 -0.19078014D-03 -0.93359989D-03 -0.10503383D-02
  0.48010088D-02 -0.37506706D-02  0.60067994D-03  0.92780791D-04 -0.47843891D-03
 -0.64546069D-04  0.23806094D-03 -0.17351487D-03  0.22217652D-04  0.50405936D-04
  0.60251128D-03
MO    3     MO 0.0        OCC NO =    2.0000000  ORB. ENERGY =    0.000000
  0.47132629D+00  0.87847470D+00  0.14895773D+01  0.22543169D+01  0.28120826D+01
  0.24131852D+01  0.92412174D+00  0.19654429D-03  0.21087913D-02  0.77734017D-02
  0.22728971D-01  0.27389515D-01 -0.32993573D-01  0.35504557D-01  0.10168621D-01
  0.25826910D-02  0.20360711D+00  0.19743041D+00  0.13318539D+00  0.14529039D+00
  0.14088280D+00  0.95038707D-01  0.49606218D+00  0.48101345D+00  0.32448883D+00
  0.45788602D-01  0.29836265D-01  0.10883921D+00  0.73819261D-02  0.26089831D-02
  0.12674678D-01  0.23228310D-03  0.15424524D-04  0.24516351D-03  0.13515223D-01
 -0.26925972D-03 -0.13245963D-01 -0.18139958D-02 -0.88655142D-02 -0.14269399D-01
  0.24907051D-02  0.14213849D-02 -0.39120900D-02 -0.14065297D-03 -0.21657060D-02
 -0.18018400D-02 -0.22496560D-03  0.41960227D-03 -0.19463668D-03  0.84817803D-04
 -0.12824807D-03  0.11875055D-03 -0.12470020D-02  0.57402748D-03  0.75497682D-03
  0.27441092D-02 -0.10438684D-02 -0.52878285D-02  0.99689683D-03 -0.67821407D-03
  0.30228980D-02  0.10934487D-02 -0.47020294D-04  0.87706072D-05  0.10765133D-03
  0.74661250D-04 -0.75623962D-04 -0.34709701D-03  0.66399633D-04  0.49312140D-04
  0.24143021D-04  0.48801498D-04 -0.15133090D-01 -0.27293152D-01 -0.40243736D-01
 -0.27976431D-01 -0.38110070D-02 -0.17360274D-04  0.17915457D-02 -0.13663910D-01
 -0.51466380D-02  0.10820634D-02 -0.58142525D-02 -0.18178050D-02  0.22064348D-03
 -0.80361464D-04  0.27852970D-03  0.32796752D-02 -0.38698001D-02  0.59012492D-03
  0.40670170D-03  0.44236030D-03 -0.83521061D-02  0.62966088D-04 -0.80012113D-04
  0.17046025D-04  0.12235455D-03  0.89450116D-04  0.36914915D-04 -0.69965469D-02
 -0.12618560D-01 -0.18606060D-01 -0.12940990D-01 -0.20027971D-02 -0.42844395D-04
  0.32610932D-02  0.87727236D-02  0.84794987D-03  0.17227083D-02  0.39674508D-02
  0.58620838D-03  0.23317931D-03  0.11011265D-03  0.32021792D-03  0.15724893D-02
 -0.29095819D-02  0.13370926D-02 -0.19368342D-02  0.12281202D-02  0.36446971D-02
  0.32184355D-04 -0.93946880D-04  0.61762526D-04 -0.15785877D-03  0.75447673D-04
 -0.17662328D-03
MO    4     MO 0.0        OCC NO =    2.0000000  ORB. ENERGY =    0.000000
 -0.58161818D-01 -0.10840407D+00 -0.18381433D+00 -0.27818344D+00 -0.34701191D+00
 -0.29778785D+00 -0.11403692D+00 -0.96743202D-04 -0.10379911D-02 -0.38262305D-02
 -0.11187674D-01 -0.13481691D-01  0.16240125D-01  0.31100892D-02  0.38609455D-02
  0.19209466D-03  0.17752939D+01  0.17214379D+01  0.11612719D+01 -0.10306276D+00
 -0.99936205D-01 -0.67416373D-01 -0.12694367D-01 -0.12309265D-01 -0.83037577D-02
  0.40092419D+00 -0.23525907D-01 -0.30569429D-02  0.65941941D-01 -0.40672453D-02
 -0.11754857D-03  0.21145211D-02 -0.13628194D-03 -0.22969151D-05 -0.12670131D-02
  0.91985309D-03  0.34715998D-03  0.28769521D-03 -0.72586285D-01  0.35145092D-02
 -0.36343668D-03  0.22492958D-03  0.13850710D-03  0.77405420D-04 -0.18731024D-01
  0.10675352D-02  0.36828794D-05 -0.10398704D-04  0.67158246D-05 -0.18581341D-05
 -0.12430087D-02  0.92995383D-04 -0.10491617D-01 -0.13932878D-02  0.47487036D-04
  0.21958319D-01  0.48542212D-02  0.33169898D-03  0.95165306D-02 -0.67435767D-03
 -0.47416009D-03 -0.10606461D-03 -0.37652757D-03 -0.35732015D-04 -0.64248532D-05
  0.55171183D-03  0.14128739D-03  0.40788582D-04  0.57787088D-03 -0.34091343D-04
 -0.21514022D-04 -0.81850771D-05  0.95205625D-03  0.17170726D-02  0.25318226D-02
  0.66556432D-03 -0.13954016D-03 -0.27399562D-05  0.24639253D-01 -0.41216187D-03
  0.71851884D-03  0.13385114D-01 -0.69903042D-03  0.95443828D-04  0.20648158D-02
 -0.14712363D-03 -0.93997110D-05  0.60019867D-03 -0.59936349D-03 -0.83518564D-06
  0.12211478D-01  0.90836460D-02 -0.61447644D-05  0.86546031D-04 -0.85732674D-04
 -0.81335765D-06  0.12739060D-02  0.79486608D-03 -0.63468004D-04  0.16299113D-02
  0.29396121D-02  0.43344564D-02  0.19334393D-02  0.75121119D-05 -0.48356799D-05
  0.24457544D-01 -0.31864207D-02  0.12188102D-02  0.13352851D-01 -0.11917959D-02
  0.29840916D-03  0.20668306D-02 -0.11630227D-03 -0.55570710D-05 -0.11274027D-02
  0.10662622D-02  0.61140497D-04 -0.12080710D-01  0.89817635D-02 -0.15616447D-02
 -0.82013284D-04  0.78599014D-04  0.34142696D-05 -0.12754307D-02  0.79567691D-03
 -0.51148547D-04
MO    5     MO 0.0        OCC NO =    2.0000000  ORB. ENERGY =    0.000000
 -0.10258530D+00 -0.19120213D+00 -0.32421008D+00 -0.49065748D+00 -0.61205653D+00
 -0.52523556D+00 -0.20113732D+00 -0.16636528D-02 -0.17849903D-01 -0.65798103D-01
 -0.19238979D+00 -0.23183905D+00  0.27927471D+00  0.15971522D+00  0.10422064D+00
  0.94564097D-02 -0.85629077D-01 -0.83031401D-01 -0.56012492D-01 -0.69479361D-01
 -0.67371608D-01 -0.45448489D-01  0.73606493D+00  0.71373539D+00  0.48148168D+00
 -0.19246576D-01 -0.14282447D-01  0.15598593D+00 -0.30949008D-02 -0.12611954D-02
  0.23262840D-01 -0.97143686D-04 -0.81425468D-05  0.44771658D-03 -0.63460012D-03
  0.20130504D-01 -0.19495904D-01  0.27305517D-02  0.37573071D-02  0.67833722D-02
 -0.26955261D-02  0.76640642D-02 -0.49685381D-02  0.13629771D-02  0.91174082D-03
  0.86037069D-03 -0.36647012D-03  0.61610323D-03 -0.24963311D-03  0.12918639D-03
  0.53173057D-04 -0.55704071D-04  0.52677077D-03 -0.28053524D-03  0.27521407D-02
 -0.11660976D-02  0.52434167D-03 -0.31741521D-02 -0.41421472D-03  0.31726406D-03
 -0.50822701D-02 -0.25178422D-03  0.19979412D-04 -0.43746336D-05  0.28303997D-04
 -0.32006570D-04  0.36700041D-04  0.65141191D-04 -0.27931666D-04 -0.23576141D-04
 -0.15005318D-03 -0.28151176D-04  0.71478073D-02  0.12891365D-01  0.19008310D-01
 -0.10470684D-01 -0.70125550D-02 -0.14947021D-03 -0.60449016D-03  0.79045506D-02
  0.17783174D-01 -0.90515718D-03 -0.44882579D-02  0.33918361D-02 -0.13060703D-03
 -0.55278880D-03  0.44277134D-03 -0.75128999D-03 -0.20143506D-02  0.27656406D-02
 -0.72901404D-03 -0.11413064D-03  0.45675409D-02  0.14385795D-03 -0.26204927D-03
  0.11819132D-03 -0.11238397D-03 -0.29866860D-04  0.99409203D-04  0.32962635D-02
  0.59449470D-02  0.87658209D-02 -0.17587821D-01 -0.78685178D-02 -0.13740678D-03
 -0.14896221D-02 -0.56087524D-02  0.14945560D-01 -0.26046211D-03  0.53518461D-02
  0.22538800D-02 -0.59184845D-04  0.53707983D-03  0.42303991D-03  0.47136131D-04
 -0.24591878D-02  0.24120517D-02  0.23299245D-03 -0.56700603D-03 -0.23464129D-02
  0.15741395D-03 -0.25444117D-03  0.97027225D-04  0.48139197D-05 -0.38548551D-04
 -0.33905988D-04
END DATA
 TOTAL ENERGY =    -76.466194695573 THE VIRIAL(-V/T)=   2.00603038
