 63
GAUSSIAN              5 MOL ORBITALS    126 PRIMITIVES        3 NUCLEI   B3LYP   B3LYP   B3LYP
  O    1    (CENTRE  1)   0.00000000  0.00000000  0.00815606  CHARGE =  8.0
  H    2    (CENTRE  2)  -0.09448631 -1.44255835 -1.09730160  CHARGE =  1.0
  H    3    (CENTRE  3)  -0.09448631  1.44255835 -1.09730160  CHARGE =  1.0
CENTRE ASSIGNMENTS    1  1  1  1  1  1  1  1  1  1  1  1  1  1  1  1  1  1  1  1
CENTRE ASSIGNMENTS    1  1  1  1  1  1  1  1  1  1  1  1  1  1  1  1  1  1  1  1
CENTRE ASSIGNMENTS    1  1  1  1  1  1  1  1  1  1  1  1  1  1  1  1  1  1  1  1
CENTRE ASSIGNMENTS    1  1  1  1  1  1  1  1  1  1  1  1  2  2  2  2  2  2  2  2
CENTRE ASSIGNMENTS    2  2  2  2  2  2  2  2  2  2  2  2  2  2  2  2  2  2  2  3
CENTRE ASSIGNMENTS    3  3  3  3  3  3  3  3  3  3  3  3  3  3  3  3  3  3  3  3
CENTRE ASSIGNMENTS    3  3  3  3  3  3
TYPE ASSIGNMENTS      1  1  1  1  1  1  1  1  1  1  1  1  1  1  1  1  2  2  2  3
TYPE ASSIGNMENTS      3  3  4  4  4  2  3  4  2  3  4  2  3  4  5  6  7  8  9 10
TYPE ASSIGNMENTS      5  6  7  8  9 10  5  6  7  8  9 10 11 12 13 17 14 15 18 19
TYPE ASSIGNMENTS     16 20 11 12 13 17 14 15 18 19 16 20  1  1  1  1  1  1  2  3
TYPE ASSIGNMENTS      4  2  3  4  2  3  4  5  6  7  8  9 10  5  6  7  8  9 10  1
TYPE ASSIGNMENTS      1  1  1  1  1  2  3  4  2  3  4  2  3  4  5  6  7  8  9 10
TYPE ASSIGNMENTS      5  6  7  8  9 10
EXPONENTS  0.1533000D+05 0.2299000D+04 0.5224000D+03 0.1473000D+03 0.4755000D+02
EXPONENTS  0.1676000D+02 0.6207000D+01 0.5224000D+03 0.1473000D+03 0.4755000D+02
EXPONENTS  0.1676000D+02 0.6207000D+01 0.6882000D+00 0.1752000D+01 0.2384000D+00
EXPONENTS  0.7376000D-01 0.3446000D+02 0.7749000D+01 0.2280000D+01 0.3446000D+02
EXPONENTS  0.7749000D+01 0.2280000D+01 0.3446000D+02 0.7749000D+01 0.2280000D+01
EXPONENTS  0.7156000D+00 0.7156000D+00 0.7156000D+00 0.2140000D+00 0.2140000D+00
EXPONENTS  0.2140000D+00 0.5974000D-01 0.5974000D-01 0.5974000D-01 0.2314000D+01
EXPONENTS  0.2314000D+01 0.2314000D+01 0.2314000D+01 0.2314000D+01 0.2314000D+01
EXPONENTS  0.6450000D+00 0.6450000D+00 0.6450000D+00 0.6450000D+00 0.6450000D+00
EXPONENTS  0.6450000D+00 0.2140000D+00 0.2140000D+00 0.2140000D+00 0.2140000D+00
EXPONENTS  0.2140000D+00 0.2140000D+00 0.1428000D+01 0.1428000D+01 0.1428000D+01
EXPONENTS  0.1428000D+01 0.1428000D+01 0.1428000D+01 0.1428000D+01 0.1428000D+01
EXPONENTS  0.1428000D+01 0.1428000D+01 0.5000000D+00 0.5000000D+00 0.5000000D+00
EXPONENTS  0.5000000D+00 0.5000000D+00 0.5000000D+00 0.5000000D+00 0.5000000D+00
EXPONENTS  0.5000000D+00 0.5000000D+00 0.3387000D+02 0.5095000D+01 0.1159000D+01
EXPONENTS  0.3258000D+00 0.1027000D+00 0.2526000D-01 0.1407000D+01 0.1407000D+01
EXPONENTS  0.1407000D+01 0.3880000D+00 0.3880000D+00 0.3880000D+00 0.1020000D+00
EXPONENTS  0.1020000D+00 0.1020000D+00 0.1057000D+01 0.1057000D+01 0.1057000D+01
EXPONENTS  0.1057000D+01 0.1057000D+01 0.1057000D+01 0.2470000D+00 0.2470000D+00
EXPONENTS  0.2470000D+00 0.2470000D+00 0.2470000D+00 0.2470000D+00 0.3387000D+02
EXPONENTS  0.5095000D+01 0.1159000D+01 0.3258000D+00 0.1027000D+00 0.2526000D-01
EXPONENTS  0.1407000D+01 0.1407000D+01 0.1407000D+01 0.3880000D+00 0.3880000D+00
EXPONENTS  0.3880000D+00 0.1020000D+00 0.1020000D+00 0.1020000D+00 0.1057000D+01
EXPONENTS  0.1057000D+01 0.1057000D+01 0.1057000D+01 0.1057000D+01 0.1057000D+01
EXPONENTS  0.2470000D+00 0.2470000D+00 0.2470000D+00 0.2470000D+00 0.2470000D+00
EXPONENTS  0.2470000D+00
MO    1     MO 0.0        OCC NO =    2.0000000  ORB. ENERGY =    0.000000
 -0.19464433D-01 -0.36278502D-01 -0.61515299D-01 -0.93096863D-01 -0.11613100D+00
 -0.99657675D-01 -0.38163595D-01 -0.57620194D-03 -0.61822687D-02 -0.22789006D-01
 -0.66633718D-01 -0.80296870D-01  0.96726089D-01  0.56771368D-01 -0.18254839D-01
 -0.63056994D-02 -0.11553828D+00 -0.11203327D+00 -0.75576980D-01 -0.89806416D-01
 -0.87082014D-01 -0.58745012D-01 -0.13882053D+01 -0.13460922D+01 -0.90806584D+00
 -0.25155808D-01 -0.18593861D-01 -0.30254865D+00 -0.28759086D-02 -0.17574562D-02
 -0.35002855D-01 -0.55011671D-04 -0.17511206D-04 -0.68708885D-03 -0.45541507D-01
  0.87798729D-02  0.36761634D-01  0.71686009D-03  0.14044579D-01  0.83877792D-02
 -0.69874902D-02 -0.40553343D-02  0.11042825D-01  0.93960545D-04  0.30714827D-02
  0.10992269D-02  0.72214328D-03 -0.12828414D-02  0.56069817D-03 -0.52011696D-05
 -0.30089338D-04 -0.60896662D-04  0.15569352D-02 -0.41962059D-03 -0.52335022D-03
 -0.13788402D-02  0.91409804D-03  0.18157302D-01 -0.32919655D-02  0.34476372D-03
 -0.16587252D-01 -0.98086110D-04  0.20350844D-04 -0.73660802D-05 -0.68611952D-03
  0.15709716D-03  0.52601137D-04  0.23281995D-03 -0.21814969D-03 -0.30502896D-04
  0.18255386D-02 -0.14313653D-04  0.34829750D-01  0.62816889D-01  0.92623466D-01
  0.60435249D-01  0.76566352D-02  0.64058447D-04  0.78130749D-03  0.32803470D-01
  0.86357892D-02  0.15943307D-03  0.12453546D-01  0.15925062D-02 -0.76096979D-04
  0.75512618D-04 -0.93296062D-03 -0.48533784D-02  0.73725477D-02 -0.25191693D-02
  0.99969208D-03  0.41799104D-03  0.11446388D-01 -0.93750246D-04  0.18850810D-03
 -0.94757850D-04 -0.31689433D-04  0.12607994D-05 -0.39717196D-03  0.30217792D-01
  0.54499032D-01  0.80358791D-01  0.51913954D-01  0.66296424D-02  0.78564640D-04
  0.49095106D-03 -0.30241186D-01  0.52386795D-02  0.42988068D-04 -0.11517798D-01
  0.23023747D-03 -0.78113473D-04 -0.10924365D-03 -0.95660130D-03 -0.39884055D-02
  0.69320351D-02 -0.29436295D-02 -0.77810649D-03  0.19594168D-03 -0.88541885D-02
 -0.86438702D-04  0.20654185D-03 -0.12010314D-03  0.37893379D-04 -0.43665567D-05
  0.46985265D-03
MO    2     MO 0.0        OCC NO =    2.0000000  ORB. ENERGY =    0.000000
  0.49418394D+00  0.92107761D+00  0.15618165D+01  0.23636432D+01  0.29484586D+01
  0.25302162D+01  0.96893837D+00  0.66351554D-03  0.71190863D-02  0.26242293D-01
  0.76730925D-01  0.92464495D-01 -0.11138328D+00 -0.10171945D-01 -0.36565697D-01
 -0.31483102D-02  0.15539257D+00  0.15067852D+00  0.10164684D+00 -0.19070666D+00
 -0.18492131D+00 -0.12474683D+00 -0.25226649D+00 -0.24461363D+00 -0.16501491D+00
  0.35461863D-01 -0.39484632D-01 -0.52673332D-01  0.58716822D-02 -0.37320118D-02
 -0.82221840D-02  0.19638761D-03 -0.37185579D-04 -0.16845772D-03 -0.14055782D-02
 -0.54139436D-02  0.68195217D-02  0.15222743D-02 -0.59083703D-02  0.17811705D-01
  0.11357746D-02 -0.28751233D-02  0.17393487D-02  0.19952808D-03 -0.17875881D-02
  0.23342418D-02  0.13762547D-03 -0.23067155D-03  0.93046079D-04 -0.11044842D-04
 -0.13324120D-03 -0.12931592D-03 -0.88220513D-03 -0.89107712D-03 -0.59283837D-03
  0.21797849D-02  0.19411151D-02  0.22128620D-02  0.46683048D-03  0.73211628D-03
 -0.43434684D-03 -0.20828885D-03 -0.61674456D-04 -0.15642096D-04 -0.12600772D-03
  0.11133876D-03  0.11170012D-03 -0.26597129D-03  0.73684609D-04 -0.64773830D-04
  0.64399445D-03 -0.30395479D-04  0.21873615D-02  0.39449965D-02  0.58168951D-02
  0.12084313D-01  0.33947340D-02  0.33636452D-04  0.21969561D-02 -0.10589019D-02
 -0.29546960D-02  0.13253764D-02  0.18806148D-02 -0.93330012D-04  0.19174831D-03
  0.11354989D-03 -0.16467681D-03  0.29190588D-03  0.25918111D-03 -0.55108699D-03
  0.10986426D-02  0.76937981D-03 -0.14013207D-02 -0.41777914D-04  0.58971324D-04
 -0.17193410D-04  0.12832877D-03  0.84525643D-04  0.91063361D-05 -0.76062731D-02
 -0.13718227D-01 -0.20227517D-01 -0.60109172D-02  0.12138832D-02  0.64440795D-04
  0.15803753D-02  0.64999886D-02 -0.10168562D-01  0.10781019D-02  0.10647522D-03
 -0.29861493D-02  0.18746623D-03 -0.18517877D-03 -0.21487852D-03  0.21287022D-02
 -0.67626090D-03 -0.14524413D-02 -0.62809881D-03  0.29785122D-03  0.69059359D-02
 -0.26251628D-04  0.97266542D-04 -0.71014914D-04 -0.11515450D-03  0.72575781D-04
  0.14523334D-03
MO    3     MO 0.0        OCC NO =    2.0000000  ORB. ENERGY =    0.000000
  0.63262826D-01  0.11791151D+00  0.19993553D+00  0.30258116D+00  0.37744615D+00
  0.32390495D+00  0.12403839D+00  0.33681899D-03  0.36138467D-02  0.13321319D-01
  0.38950757D-01  0.46937556D-01 -0.56541260D-01 -0.27345788D-01 -0.23962745D-01
 -0.24408787D-02 -0.91164161D+00 -0.88398570D+00 -0.59633153D+00  0.12244278D+01
  0.11872831D+01  0.80093418D+00 -0.16732209D+00 -0.16224614D+00 -0.10945029D+00
 -0.20563322D+00  0.25351019D+00 -0.34810083D-01 -0.33709538D-01  0.23961298D-01
 -0.43319521D-02 -0.10729785D-02  0.23874917D-03 -0.47734076D-04  0.40871364D-03
 -0.37254589D-02  0.33167453D-02 -0.97737277D-02  0.37638872D-01 -0.11435965D+00
  0.10090086D-02 -0.19467783D-02  0.93776979D-03 -0.12810656D-02  0.95799215D-02
 -0.14986947D-01  0.18013365D-03 -0.21488223D-03  0.34748582D-04  0.70913161D-04
  0.61172947D-03  0.83026995D-03  0.54215853D-02  0.57211405D-02 -0.17851876D-03
 -0.11168539D-01 -0.12462885D-01 -0.34023290D-03 -0.50962164D-02 -0.47005361D-02
  0.87578916D-03  0.13373138D-02  0.18604829D-03  0.10042972D-03 -0.34124326D-04
 -0.26621571D-03 -0.71716809D-03 -0.12206111D-03 -0.29192917D-03  0.41587892D-03
  0.22443409D-03  0.19515348D-03 -0.30672213D-01 -0.55318599D-01 -0.81567242D-01
 -0.51746613D-01 -0.49635251D-02  0.13449297D-03 -0.14584622D-01 -0.17145134D-01
 -0.25308576D-01 -0.75571049D-02 -0.46441160D-02 -0.93096886D-02 -0.10630275D-02
  0.35080197D-03 -0.22622290D-03  0.54026667D-02 -0.21662260D-02 -0.32364407D-02
 -0.76773602D-02 -0.61254081D-02 -0.17535078D-01 -0.21462219D-04  0.18997639D-03
 -0.16851417D-03 -0.68815438D-03 -0.43246146D-03 -0.48442095D-03  0.32207597D-01
  0.58087727D-01  0.85650319D-01  0.64433401D-01  0.90385778D-02 -0.63285612D-04
 -0.10625879D-01 -0.17789241D-01  0.21007889D-01 -0.59694845D-02 -0.81139506D-02
  0.92635923D-02 -0.10355345D-02  0.10908958D-03  0.96096013D-04 -0.63904425D-02
  0.38397584D-02  0.25506842D-02  0.46562446D-02 -0.30979694D-02 -0.17807179D-01
 -0.12114839D-03 -0.55897196D-04  0.17704558D-03  0.60356930D-03 -0.35573764D-03
 -0.50651347D-03
MO    4     MO 0.0        OCC NO =    2.0000000  ORB. ENERGY =    0.000000
 -0.14219294D-01 -0.26502426D-01 -0.44938587D-01 -0.68009773D-01 -0.84836831D-01
 -0.72802623D-01 -0.27879537D-01  0.40534025D-04  0.43490348D-03  0.16031361D-02
  0.46874760D-02  0.56486365D-02 -0.68043813D-02 -0.58803996D-02 -0.44449654D-02
 -0.55576346D-03  0.15279681D+01  0.14816150D+01  0.99948875D+00  0.74674657D+00
  0.72409298D+00  0.48846885D+00 -0.20287957D+00 -0.19672494D+00 -0.13270948D+00
  0.34514060D+00  0.15460925D+00 -0.45120560D-01  0.56827825D-01  0.14613370D-01
 -0.68527477D-02  0.18241179D-02  0.14560689D-03 -0.19459688D-03 -0.67123813D-02
 -0.53292990D-03  0.72453112D-02 -0.59607413D-02 -0.61552863D-01 -0.69744965D-01
 -0.15128401D-02 -0.40578751D-03  0.19186276D-02 -0.78128843D-03 -0.15927760D-01
 -0.91401475D-02 -0.56000035D-04 -0.62912166D-04  0.11891220D-03  0.43248085D-04
 -0.10664602D-02  0.50635997D-03 -0.90035101D-02  0.34891742D-02 -0.83605778D-03
  0.19199644D-01 -0.76007885D-02  0.44076335D-02  0.78108860D-02 -0.28667342D-02
 -0.18994602D-02  0.81559280D-03 -0.32252653D-03  0.61249467D-04 -0.60984557D-04
  0.49142955D-03 -0.43738209D-03  0.18386876D-03  0.47615002D-03  0.25363369D-03
 -0.91508436D-06  0.11901901D-03 -0.18305982D-01 -0.33015592D-01 -0.48681471D-01
 -0.33060475D-01 -0.37568806D-02  0.67927675D-04  0.19997796D-01 -0.98529037D-02
 -0.16300141D-01  0.11070175D-01 -0.32980029D-02 -0.67092512D-02  0.17721576D-02
  0.16505344D-03 -0.29553543D-03  0.40977526D-02 -0.14850691D-02 -0.26126835D-02
  0.96672984D-02  0.68309715D-02 -0.11377592D-01  0.80057164D-04  0.91257154D-04
 -0.17131432D-03  0.10787574D-02  0.65779598D-03 -0.41127735D-03  0.20042772D-01
  0.36147965D-01  0.53300153D-01  0.37794682D-01  0.47826364D-02 -0.52692320D-04
  0.22412130D-01 -0.11452659D-01  0.11947062D-01  0.12038423D-01 -0.44828088D-02
  0.46181079D-02  0.17889249D-02  0.11542241D-03 -0.98961537D-04 -0.30945568D-02
  0.21778239D-02  0.91673286D-03 -0.11509798D-01  0.86773273D-02 -0.10176729D-01
  0.19261172D-04 -0.58694723D-04  0.39433551D-04 -0.11303437D-02  0.70458784D-03
 -0.19306767D-03
MO    5     MO 0.0        OCC NO =    2.0000000  ORB. ENERGY =    0.000000
  0.10228569D+00  0.19064371D+00  0.32326320D+00  0.48922447D+00  0.61026897D+00
  0.52370157D+00  0.20054988D+00 -0.14668429D-02 -0.15738262D-01 -0.58014196D-01
 -0.16963011D+00 -0.20441253D+00  0.24623655D+00  0.16360508D+00  0.95880695D-01
  0.89193350D-02 -0.21958336D-01 -0.21292200D-01 -0.14363592D-01  0.25080326D+00
  0.24319480D+00  0.16405777D+00  0.73202718D+00  0.70982013D+00  0.47884046D+00
 -0.57648940D-02  0.51927260D-01  0.15589946D+00 -0.11945309D-02  0.49080652D-02
  0.22766539D-01 -0.63225247D-04  0.48903716D-04  0.43831364D-03  0.61416543D-03
  0.18801721D-01 -0.19415887D-01 -0.20019822D-02  0.51175064D-04 -0.23424633D-01
 -0.20600675D-02  0.70741098D-02 -0.50140423D-02 -0.26240454D-03  0.39477802D-03
 -0.30698217D-02 -0.34945171D-03  0.60162391D-03 -0.25217219D-03  0.14525357D-04
  0.76732282D-04  0.17006671D-03  0.22559814D-03  0.11718785D-02  0.27226447D-02
 -0.14765647D-02 -0.25528106D-02 -0.32780467D-02  0.79977032D-03 -0.96282504D-03
 -0.48898874D-02  0.27392604D-03  0.12395270D-04  0.20571325D-04  0.66758961D-05
 -0.22607471D-04 -0.14689971D-03 -0.70422177D-04 -0.14578341D-04  0.85185738D-04
  0.50394489D-04  0.39973879D-04 -0.31876699D-02 -0.57490939D-02 -0.84770357D-02
 -0.27491437D-01 -0.85984155D-02 -0.11342024D-03 -0.33847127D-03  0.88183162D-03
  0.97296269D-02 -0.59599779D-03 -0.65740943D-02  0.47896362D-03 -0.65053185D-04
 -0.47015619D-03  0.38931571D-03  0.14627985D-02 -0.33290489D-02  0.18662505D-02
 -0.75469388D-03 -0.36736673D-03 -0.20198804D-02  0.15234275D-03 -0.22045435D-03
  0.68111605D-04 -0.64147358D-04 -0.52875450D-04 -0.37549617D-04  0.96921919D-02
  0.17480267D-01  0.25774644D-01 -0.36939328D-02 -0.57303224D-02 -0.15393183D-03
  0.47240999D-03 -0.80375454D-02  0.19216769D-01 -0.27080068D-03  0.39608209D-02
  0.42833850D-02 -0.59421702D-04  0.56435717D-03  0.45533727D-03 -0.95281983D-03
 -0.20988250D-02  0.30516448D-02  0.13586961D-03  0.25275271D-03 -0.52193813D-02
  0.13192373D-03 -0.27081738D-03  0.13889366D-03  0.46821539D-04 -0.37159877D-04
 -0.16542648D-03
END DATA
 TOTAL ENERGY =    -76.466194010053 THE VIRIAL(-V/T)=   2.00602215
