 64
GAUSSIAN              5 MOL ORBITALS    126 PRIMITIVES        3 NUCLEI   B3LYP   B3LYP   B3LYP
  O    1    (CENTRE  1)   0.00000000  0.00000000  0.00815606  CHARGE =  8.0
  H    2    (CENTRE  2)   0.00000000 -1.34807204 -1.09730160  CHARGE =  1.0
  H    3    (CENTRE  3)   0.09448631  1.44255835 -1.09730160  CHARGE =  1.0
CENTRE ASSIGNMENTS    1  1  1  1  1  1  1  1  1  1  1  1  1  1  1  1  1  1  1  1
CENTRE ASSIGNMENTS    1  1  1  1  1  1  1  1  1  1  1  1  1  1  1  1  1  1  1  1
CENTRE ASSIGNMENTS    1  1  1  1  1  1  1  1  1  1  1  1  1  1  1  1  1  1  1  1
CENTRE ASSIGNMENTS    1  1  1  1  1  1  1  1  1  1  1  1  2  2  2  2  2  2  2  2
CENTRE ASSIGNMENTS    2  2  2  2  2  2  2  2  2  2  2  2  2  2  2  2  2  2  2  3
CENTRE ASSIGNMENTS    3  3  3  3  3  3  3  3  3  3  3  3  3  3  3  3  3  3  3  3
CENTRE ASSIGNMENTS    3  3  3  3  3  3
TYPE ASSIGNMENTS      1  1  1  1  1  1  1  1  1  1  1  1  1  1  1  1  2  2  2  3
TYPE ASSIGNMENTS      3  3  4  4  4  2  3  4  2  3  4  2  3  4  5  6  7  8  9 10
TYPE ASSIGNMENTS      5  6  7  8  9 10  5  6  7  8  9 10 11 12 13 17 14 15 18 19
TYPE ASSIGNMENTS     16 20 11 12 13 17 14 15 18 19 16 20  1  1  1  1  1  1  2  3
TYPE ASSIGNMENTS      4  2  3  4  2  3  4  5  6  7  8  9 10  5  6  7  8  9 10  1
TYPE ASSIGNMENTS      1  1  1  1  1  2  3  4  2  3  4  2  3  4  5  6  7  8  9 10
TYPE ASSIGNMENTS      5  6  7  8  9 10
EXPONENTS  0.1533000D+05 0.2299000D+04 0.5224000D+03 0.1473000D+03 0.4755000D+02
EXPONENTS  0.1676000D+02 0.6207000D+01 0.5224000D+03 0.1473000D+03 0.4755000D+02
EXPONENTS  0.1676000D+02 0.6207000D+01 0.6882000D+00 0.1752000D+01 0.2384000D+00
EXPONENTS  0.7376000D-01 0.3446000D+02 0.7749000D+01 0.2280000D+01 0.3446000D+02
EXPONENTS  0.7749000D+01 0.2280000D+01 0.3446000D+02 0.7749000D+01 0.2280000D+01
EXPONENTS  0.7156000D+00 0.7156000D+00 0.7156000D+00 0.2140000D+00 0.2140000D+00
EXPONENTS  0.2140000D+00 0.5974000D-01 0.5974000D-01 0.5974000D-01 0.2314000D+01
EXPONENTS  0.2314000D+01 0.2314000D+01 0.2314000D+01 0.2314000D+01 0.2314000D+01
EXPONENTS  0.6450000D+00 0.6450000D+00 0.6450000D+00 0.6450000D+00 0.6450000D+00
EXPONENTS  0.6450000D+00 0.2140000D+00 0.2140000D+00 0.2140000D+00 0.2140000D+00
EXPONENTS  0.2140000D+00 0.2140000D+00 0.1428000D+01 0.1428000D+01 0.1428000D+01
EXPONENTS  0.1428000D+01 0.1428000D+01 0.1428000D+01 0.1428000D+01 0.1428000D+01
EXPONENTS  0.1428000D+01 0.1428000D+01 0.5000000D+00 0.5000000D+00 0.5000000D+00
EXPONENTS  0.5000000D+00 0.5000000D+00 0.5000000D+00 0.5000000D+00 0.5000000D+00
EXPONENTS  0.5000000D+00 0.5000000D+00 0.3387000D+02 0.5095000D+01 0.1159000D+01
EXPONENTS  0.3258000D+00 0.1027000D+00 0.2526000D-01 0.1407000D+01 0.1407000D+01
EXPONENTS  0.1407000D+01 0.3880000D+00 0.3880000D+00 0.3880000D+00 0.1020000D+00
EXPONENTS  0.1020000D+00 0.1020000D+00 0.1057000D+01 0.1057000D+01 0.1057000D+01
EXPONENTS  0.1057000D+01 0.1057000D+01 0.1057000D+01 0.2470000D+00 0.2470000D+00
EXPONENTS  0.2470000D+00 0.2470000D+00 0.2470000D+00 0.2470000D+00 0.3387000D+02
EXPONENTS  0.5095000D+01 0.1159000D+01 0.3258000D+00 0.1027000D+00 0.2526000D-01
EXPONENTS  0.1407000D+01 0.1407000D+01 0.1407000D+01 0.3880000D+00 0.3880000D+00
EXPONENTS  0.3880000D+00 0.1020000D+00 0.1020000D+00 0.1020000D+00 0.1057000D+01
EXPONENTS  0.1057000D+01 0.1057000D+01 0.1057000D+01 0.1057000D+01 0.1057000D+01
EXPONENTS  0.2470000D+00 0.2470000D+00 0.2470000D+00 0.2470000D+00 0.2470000D+00
EXPONENTS  0.2470000D+00
MO    1     MO 0.0        OCC NO =    2.0000000  ORB. ENERGY =    0.000000
 -0.46083916D-01 -0.85892843D-01 -0.14564339D+00 -0.22041578D+00 -0.27495131D+00
 -0.23594913D+00 -0.90355981D-01  0.52890071D-04  0.56747576D-03  0.20918225D-02
  0.61163663D-02  0.73705188D-02 -0.88785709D-02 -0.10872984D-01  0.19303646D-02
  0.59858418D-03  0.17625370D+01  0.17090680D+01  0.11529272D+01 -0.81984108D-01
 -0.79497007D-01 -0.53628211D-01  0.21551143D+00  0.20897359D+00  0.14097235D+00
  0.39777829D+00 -0.18295786D-01  0.47312681D-01  0.64960635D-01 -0.27762964D-02
  0.61509065D-02  0.20511379D-02 -0.75712275D-04  0.15195251D-03  0.80789454D-02
 -0.88079077D-03 -0.71981546D-02 -0.28932593D-02 -0.74512245D-01  0.39932538D-02
  0.14860771D-02  0.44274467D-03 -0.19288218D-02  0.59485448D-03 -0.18484158D-01
  0.10816619D-02 -0.34123991D-04  0.13311422D-03 -0.98990232D-04  0.17496818D-03
 -0.11569129D-02  0.81653727D-04 -0.10542945D-01 -0.87562613D-03  0.49088364D-03
  0.21508201D-01  0.27536201D-02 -0.42142590D-02  0.10120634D-01 -0.12674174D-03
  0.27416081D-02  0.12552713D-02 -0.28329395D-03  0.19631563D-05  0.10708790D-03
  0.37454797D-03  0.11495526D-03 -0.70949777D-04  0.47533387D-03 -0.12084473D-03
 -0.25031393D-03 -0.61778201D-03 -0.29267613D-02 -0.52785346D-02 -0.77831961D-02
 -0.48372738D-02 -0.47521981D-03 -0.62405411D-05  0.26823053D-01 -0.40901556D-02
  0.66159140D-03  0.14487053D-01 -0.14939655D-02  0.76552960D-03  0.21681264D-02
 -0.61391398D-04  0.20877226D-03  0.29552508D-03 -0.10705149D-02  0.77498984D-03
  0.12866882D-01  0.10117590D-01 -0.33506312D-03 -0.30002385D-05 -0.53339794D-04
  0.56340032D-04  0.13700809D-02  0.93533670D-03  0.12383076D-03 -0.38400907D-02
 -0.69257617D-02 -0.10212032D-01 -0.65811253D-02 -0.80565646D-03 -0.52243878D-05
  0.24600853D-01  0.25859588D-02 -0.50896589D-04  0.13275303D-01  0.78055096D-03
  0.33731041D-03  0.20302809D-02 -0.72097482D-04  0.18161937D-03 -0.30905314D-03
 -0.28422090D-03  0.59327404D-03 -0.12223267D-01  0.88518090D-02  0.20788475D-03
 -0.66060756D-04  0.32723688D-04  0.33337068D-04 -0.12567863D-02  0.75040034D-03
 -0.11888786D-03
MO    2     MO 0.0        OCC NO =    2.0000000  ORB. ENERGY =    0.000000
  0.42588524D+00  0.79378006D+00  0.13459656D+01  0.20369759D+01  0.25409668D+01
  0.21805276D+01  0.83502622D+00  0.56417007D-03  0.60531747D-02  0.22313142D-01
  0.65242317D-01  0.78620165D-01 -0.94706320D-01 -0.82918861D-02 -0.52013904D-01
 -0.62106392D-02  0.25779736D+00  0.24997672D+00  0.16863282D+00  0.27086883D+00
  0.26265165D+00  0.17718325D+00 -0.84228465D+00 -0.81673278D+00 -0.55096311D+00
  0.57610666D-01  0.55267626D-01 -0.18126828D+00  0.90010724D-02  0.52237976D-02
 -0.23068526D-01  0.26775706D-03  0.43022198D-04 -0.43618150D-03 -0.18992741D-01
 -0.45025352D-02  0.23495276D-01  0.17049482D-02 -0.13464076D-01 -0.23509502D-01
 -0.14756628D-02 -0.48615466D-02  0.63372094D-02 -0.16658332D-04 -0.30160377D-02
 -0.30514465D-02  0.46328254D-03 -0.75826149D-03  0.29497895D-03 -0.66449553D-04
 -0.12326539D-03  0.90883508D-04 -0.17666784D-02  0.12915127D-02 -0.11670470D-02
  0.31591370D-02 -0.20327981D-02  0.94785216D-02  0.21408981D-02 -0.18417400D-02
 -0.59773805D-02 -0.10066509D-02 -0.32230353D-04 -0.53348904D-04 -0.34736753D-03
 -0.11688831D-05 -0.15860927D-03 -0.19486783D-03  0.97859941D-04  0.31865598D-03
  0.12369704D-02 -0.17646246D-04  0.29873309D-02  0.53877744D-02  0.79442702D-02
  0.13444221D-01  0.35195437D-02  0.90119686D-04  0.38739367D-02  0.48737994D-02
 -0.11042631D-01  0.20595392D-02  0.41360207D-02 -0.39561186D-02  0.29635680D-03
  0.14712030D-03 -0.69642593D-03  0.92172550D-03  0.23445657D-02 -0.32662912D-02
  0.18550063D-02  0.14089234D-02 -0.47992559D-02 -0.71393250D-06  0.12807657D-03
 -0.12736264D-03  0.19481621D-03  0.10692044D-03 -0.48153015D-03  0.16821853D-01
  0.30338904D-01  0.44734697D-01  0.39418723D-01  0.73220400D-02  0.68891219D-04
  0.25216632D-02 -0.12362262D-01  0.34211766D-03  0.13048734D-02 -0.76076446D-02
  0.87633164D-03  0.26067939D-03 -0.20388509D-03 -0.52547059D-03 -0.22361098D-02
  0.37713231D-02 -0.15352133D-02 -0.89705638D-03  0.87853654D-03 -0.40622545D-02
 -0.11312050D-03  0.14194362D-03 -0.28823129D-04 -0.13966792D-03  0.88292493D-04
  0.99368231D-04
MO    3     MO 0.0        OCC NO =    2.0000000  ORB. ENERGY =    0.000000
  0.26246760D+00  0.48919645D+00  0.82950133D+00  0.12553621D+01  0.15659652D+01
  0.13438311D+01  0.51461593D+00  0.34875480D-03  0.37419102D-02  0.13793385D-01
  0.40331050D-01  0.48600876D-01 -0.58544906D-01 -0.50458080D-02  0.28176484D-01
  0.62461068D-02 -0.13453571D+00 -0.13045438D+00 -0.88003757D-01 -0.26966341D+00
 -0.26148279D+00 -0.17639475D+00  0.12578661D+01  0.12197070D+01  0.82280712D+00
 -0.29806769D-01 -0.58544111D-01  0.27238052D+00 -0.42072158D-02 -0.67326442D-02
  0.30878780D-01 -0.11226095D-03 -0.77869452D-04  0.58915254D-03  0.38431610D-01
 -0.27870074D-02 -0.35644603D-01 -0.36671170D-02  0.10056351D-01  0.22995363D-01
  0.56308837D-02  0.44344567D-02 -0.10065340D-01 -0.32083447D-03  0.22482276D-02
  0.50372060D-02 -0.73544110D-03  0.11746062D-02 -0.43916510D-03  0.11054231D-03
  0.33420759D-04  0.29218190D-03  0.12055287D-02 -0.14556340D-02  0.15697401D-02
 -0.17305334D-02  0.32968552D-02 -0.15514553D-01 -0.18860526D-02  0.10700469D-02
  0.10805333D-01  0.19600923D-02  0.30355921D-04  0.10023232D-03  0.54148546D-03
  0.33645298D-04  0.29783938D-03 -0.19809008D-03 -0.12471306D-03 -0.59853633D-03
 -0.14263663D-02  0.16931048D-04 -0.21894713D-01 -0.39488016D-01 -0.58225056D-01
 -0.40435852D-01 -0.49575861D-02 -0.86070873D-04 -0.19561317D-02 -0.26608285D-01
 -0.15089731D-02 -0.99221774D-03 -0.10161344D-01  0.10838381D-02 -0.13263228D-03
 -0.98246587D-04  0.94609952D-03  0.37176728D-02 -0.69010376D-02  0.31833648D-02
 -0.91585220D-03 -0.65522311D-03 -0.82208351D-02 -0.42352658D-04 -0.12044417D-03
  0.16279683D-03 -0.92554993D-04 -0.30946373D-04  0.72858340D-03 -0.34104742D-01
 -0.61509306D-01 -0.90695436D-01 -0.61659397D-01 -0.81238180D-02 -0.45220631D-04
  0.39341979D-03  0.30152984D-01 -0.93838144D-02 -0.33522462D-04  0.12043824D-01
 -0.26169787D-02 -0.11635235D-03  0.40780997D-04  0.80631884D-03  0.55656170D-02
 -0.74281239D-02  0.18625069D-02 -0.91663783D-03  0.38257464D-03  0.13081128D-01
  0.96124515D-04 -0.10384728D-03  0.77227668D-05  0.50000177D-04 -0.33370461D-04
 -0.26840017D-03
MO    4     MO 0.0        OCC NO =    2.0000000  ORB. ENERGY =    0.000000
 -0.17867930D-01 -0.33302883D-01 -0.56469718D-01 -0.85460913D-01 -0.10660575D+00
 -0.91483596D-01 -0.35033357D-01 -0.34111721D-03 -0.36599638D-02 -0.13491316D-01
 -0.39447815D-01 -0.47536535D-01  0.57262795D-01  0.32387000D-01  0.35293262D-01
  0.38256661D-02  0.22597395D-01  0.21911872D-01  0.14781619D-01  0.14044470D+01
  0.13618411D+01  0.91868998D+00  0.47156759D+00  0.45726194D+00  0.30846620D+00
  0.43995800D-02  0.28619049D+00  0.98159742D-01  0.20483319D-03  0.25386624D-01
  0.10965143D-01 -0.69806985D-05  0.23061943D-03  0.20382515D-03  0.89800417D-02
  0.48106640D-02 -0.13790706D-01  0.52433038D-02 -0.24159640D-02 -0.13345270D+00
  0.56031862D-04  0.34086656D-02 -0.34646974D-02  0.84328377D-03 -0.15863688D-03
 -0.14945704D-01 -0.43812519D-03  0.51125487D-03 -0.73129679D-04  0.29878167D-05
  0.23445137D-04  0.14724679D-02 -0.23867906D-03  0.63346102D-02  0.94149520D-03
  0.14071246D-02 -0.12983160D-01 -0.40831470D-02 -0.69108746D-03 -0.60206704D-02
  0.12586613D-02 -0.21981390D-03 -0.28134755D-04  0.13190741D-03  0.22378657D-03
  0.89680567D-04 -0.60503723D-03  0.20209945D-03 -0.52763017D-05  0.20931499D-03
 -0.87345915D-03 -0.13898834D-03 -0.41476701D-01 -0.74804939D-01 -0.11029984D+00
 -0.84837805D-01 -0.11062979D-01  0.54972553D-04  0.18551806D-03 -0.26632564D-01
 -0.28354290D-01  0.39327156D-04 -0.11134039D-01 -0.11166410D-01 -0.73233672D-05
  0.17269553D-03  0.15505236D-03  0.82930872D-02 -0.50432188D-02 -0.32498684D-02
  0.40838738D-04  0.11535239D-03 -0.23825595D-01 -0.14655592D-04  0.14117249D-03
 -0.12651690D-03  0.91966364D-05  0.39266095D-05 -0.71578069D-04  0.31498612D-01
  0.56809044D-01  0.83764902D-01  0.53075268D-01  0.52906932D-02 -0.15220237D-03
 -0.18566560D-02 -0.16384711D-01  0.29694698D-01 -0.66088576D-03 -0.43704478D-02
  0.11434509D-01 -0.18260911D-04  0.27983247D-03  0.51971160D-03 -0.62067979D-02
  0.16880022D-02  0.45187957D-02  0.14024290D-02 -0.15954319D-02 -0.20014168D-01
 -0.58334909D-04 -0.14109307D-03  0.19942798D-03  0.29436109D-04 -0.49265386D-04
 -0.75276353D-03
MO    5     MO 0.0        OCC NO =    2.0000000  ORB. ENERGY =    0.000000
  0.81259347D-01  0.15145406D+00  0.25681165D+00  0.38865712D+00  0.48481912D+00
  0.41604693D+00  0.15932387D+00 -0.15698719D-02 -0.16843695D-01 -0.62089032D-01
 -0.18154469D+00 -0.21877017D+00  0.26353186D+00  0.17178653D+00  0.81986032D-01
  0.61347294D-02  0.10375809D+00  0.10061045D+00  0.67871214D-01 -0.27226478D+00
 -0.26400525D+00 -0.17809638D+00  0.20634888D+00  0.20008900D+00  0.13497886D+00
  0.23806500D-01 -0.54121779D-01  0.43033855D-01  0.39049139D-02 -0.44979315D-02
  0.10052243D-01  0.13205776D-03 -0.46182010D-04  0.18027547D-03 -0.15640695D-01
  0.20491229D-01 -0.48505343D-02  0.11637814D-02 -0.51582080D-02  0.27586314D-01
 -0.38572721D-02  0.45937143D-02 -0.73644219D-03  0.54725501D-03 -0.14852130D-02
  0.18054339D-02  0.13988078D-04  0.42510214D-04 -0.56498292D-04  0.30074263D-04
 -0.87716967D-04 -0.40528183D-03 -0.79527397D-03 -0.10260319D-02  0.22580549D-02
  0.16515689D-02  0.23278337D-02  0.32150243D-02  0.73425301D-03  0.75026213D-03
 -0.99891891D-02 -0.72999851D-03 -0.14654738D-04 -0.54396601D-04 -0.31301602D-03
 -0.22226274D-04 -0.57601224D-04 -0.17177735D-03  0.66190487D-04  0.22079103D-03
  0.11108254D-02  0.21406914D-04  0.22369507D-01  0.40344327D-01  0.59487686D-01
  0.18651432D-01 -0.27382384D-02 -0.11749428D-03  0.15371565D-02  0.20263829D-01
  0.24149658D-01  0.81578472D-03  0.56201471D-03  0.48654729D-02  0.12840146D-03
 -0.50507808D-03  0.90112397D-04 -0.30452065D-02  0.59352254D-03  0.24516840D-02
  0.71510801D-03  0.58495802D-03  0.10116159D-01  0.13906658D-03 -0.20631543D-03
  0.67248854D-04  0.77228589D-04  0.64972762D-04 -0.14967218D-03  0.72663880D-02
  0.13105230D-01  0.19323654D-01 -0.80829800D-02 -0.58073584D-02 -0.79091081D-04
  0.86228102D-03 -0.10862192D-01  0.10861354D-01  0.96362961D-03  0.23854901D-02
  0.61621928D-03  0.15287676D-03  0.43214529D-03  0.35463383D-04 -0.28003847D-04
 -0.77306332D-03  0.80106717D-03 -0.85343369D-03  0.51464546D-03 -0.81332361D-03
  0.12064089D-03 -0.16432003D-03  0.43679139D-04 -0.11493267D-03  0.65852114D-04
  0.21205016D-03
END DATA
 TOTAL ENERGY =    -76.464423275428 THE VIRIAL(-V/T)=   2.00486654
