 64
GAUSSIAN              5 MOL ORBITALS    126 PRIMITIVES        3 NUCLEI   B3LYP   B3LYP   B3LYP
  O    1    (CENTRE  1)   0.00000000  0.00000000  0.00815606  CHARGE =  8.0
  H    2    (CENTRE  2)   0.00000000 -1.53704465 -1.09730160  CHARGE =  1.0
  H    3    (CENTRE  3)   0.09448631  1.44255835 -1.09730160  CHARGE =  1.0
CENTRE ASSIGNMENTS    1  1  1  1  1  1  1  1  1  1  1  1  1  1  1  1  1  1  1  1
CENTRE ASSIGNMENTS    1  1  1  1  1  1  1  1  1  1  1  1  1  1  1  1  1  1  1  1
CENTRE ASSIGNMENTS    1  1  1  1  1  1  1  1  1  1  1  1  1  1  1  1  1  1  1  1
CENTRE ASSIGNMENTS    1  1  1  1  1  1  1  1  1  1  1  1  2  2  2  2  2  2  2  2
CENTRE ASSIGNMENTS    2  2  2  2  2  2  2  2  2  2  2  2  2  2  2  2  2  2  2  3
CENTRE ASSIGNMENTS    3  3  3  3  3  3  3  3  3  3  3  3  3  3  3  3  3  3  3  3
CENTRE ASSIGNMENTS    3  3  3  3  3  3
TYPE ASSIGNMENTS      1  1  1  1  1  1  1  1  1  1  1  1  1  1  1  1  2  2  2  3
TYPE ASSIGNMENTS      3  3  4  4  4  2  3  4  2  3  4  2  3  4  5  6  7  8  9 10
TYPE ASSIGNMENTS      5  6  7  8  9 10  5  6  7  8  9 10 11 12 13 17 14 15 18 19
TYPE ASSIGNMENTS     16 20 11 12 13 17 14 15 18 19 16 20  1  1  1  1  1  1  2  3
TYPE ASSIGNMENTS      4  2  3  4  2  3  4  5  6  7  8  9 10  5  6  7  8  9 10  1
TYPE ASSIGNMENTS      1  1  1  1  1  2  3  4  2  3  4  2  3  4  5  6  7  8  9 10
TYPE ASSIGNMENTS      5  6  7  8  9 10
EXPONENTS  0.1533000D+05 0.2299000D+04 0.5224000D+03 0.1473000D+03 0.4755000D+02
EXPONENTS  0.1676000D+02 0.6207000D+01 0.5224000D+03 0.1473000D+03 0.4755000D+02
EXPONENTS  0.1676000D+02 0.6207000D+01 0.6882000D+00 0.1752000D+01 0.2384000D+00
EXPONENTS  0.7376000D-01 0.3446000D+02 0.7749000D+01 0.2280000D+01 0.3446000D+02
EXPONENTS  0.7749000D+01 0.2280000D+01 0.3446000D+02 0.7749000D+01 0.2280000D+01
EXPONENTS  0.7156000D+00 0.7156000D+00 0.7156000D+00 0.2140000D+00 0.2140000D+00
EXPONENTS  0.2140000D+00 0.5974000D-01 0.5974000D-01 0.5974000D-01 0.2314000D+01
EXPONENTS  0.2314000D+01 0.2314000D+01 0.2314000D+01 0.2314000D+01 0.2314000D+01
EXPONENTS  0.6450000D+00 0.6450000D+00 0.6450000D+00 0.6450000D+00 0.6450000D+00
EXPONENTS  0.6450000D+00 0.2140000D+00 0.2140000D+00 0.2140000D+00 0.2140000D+00
EXPONENTS  0.2140000D+00 0.2140000D+00 0.1428000D+01 0.1428000D+01 0.1428000D+01
EXPONENTS  0.1428000D+01 0.1428000D+01 0.1428000D+01 0.1428000D+01 0.1428000D+01
EXPONENTS  0.1428000D+01 0.1428000D+01 0.5000000D+00 0.5000000D+00 0.5000000D+00
EXPONENTS  0.5000000D+00 0.5000000D+00 0.5000000D+00 0.5000000D+00 0.5000000D+00
EXPONENTS  0.5000000D+00 0.5000000D+00 0.3387000D+02 0.5095000D+01 0.1159000D+01
EXPONENTS  0.3258000D+00 0.1027000D+00 0.2526000D-01 0.1407000D+01 0.1407000D+01
EXPONENTS  0.1407000D+01 0.3880000D+00 0.3880000D+00 0.3880000D+00 0.1020000D+00
EXPONENTS  0.1020000D+00 0.1020000D+00 0.1057000D+01 0.1057000D+01 0.1057000D+01
EXPONENTS  0.1057000D+01 0.1057000D+01 0.1057000D+01 0.2470000D+00 0.2470000D+00
EXPONENTS  0.2470000D+00 0.2470000D+00 0.2470000D+00 0.2470000D+00 0.3387000D+02
EXPONENTS  0.5095000D+01 0.1159000D+01 0.3258000D+00 0.1027000D+00 0.2526000D-01
EXPONENTS  0.1407000D+01 0.1407000D+01 0.1407000D+01 0.3880000D+00 0.3880000D+00
EXPONENTS  0.3880000D+00 0.1020000D+00 0.1020000D+00 0.1020000D+00 0.1057000D+01
EXPONENTS  0.1057000D+01 0.1057000D+01 0.1057000D+01 0.1057000D+01 0.1057000D+01
EXPONENTS  0.2470000D+00 0.2470000D+00 0.2470000D+00 0.2470000D+00 0.2470000D+00
EXPONENTS  0.2470000D+00
MO    1     MO 0.0        OCC NO =    2.0000000  ORB. ENERGY =    0.000000
 -0.10002415D+00 -0.18642856D+00 -0.31611582D+00 -0.47840769D+00 -0.59677588D+00
 -0.51212249D+00 -0.19611571D+00 -0.12820473D-02 -0.13755526D-01 -0.50705459D-01
 -0.14825979D+00 -0.17866025D+00  0.21521521D+00  0.11998787D+00  0.35391191D-01
 -0.97811954D-03 -0.16928757D+00 -0.16415200D+00 -0.11073597D+00  0.19800529D+00
  0.19199853D+00  0.12952107D+00 -0.83513447D+00 -0.80979951D+00 -0.54628597D+00
 -0.38574289D-01  0.38781405D-01 -0.18545502D+00 -0.69855776D-02  0.28365304D-02
 -0.19910264D-01 -0.24006743D-03  0.32456350D-04 -0.40541106D-03 -0.38399738D-01
  0.17583596D-01  0.20816142D-01  0.42322294D-02  0.24713523D-02 -0.21449722D-01
 -0.76255549D-02  0.89534451D-03  0.67302104D-02  0.63261330D-03  0.92898468D-03
 -0.98888221D-03  0.33261652D-03 -0.69942770D-03  0.36681118D-03 -0.69060295D-04
  0.17039388D-03  0.48156970D-03  0.59186180D-03  0.57604913D-03  0.11736884D-02
 -0.17892903D-02 -0.14857315D-02  0.14010755D-01  0.13704917D-04 -0.24241590D-03
 -0.17531821D-01 -0.19791800D-02  0.38946079D-04  0.11351613D-03 -0.47289527D-03
 -0.12890469D-03  0.44812332D-04  0.41463085D-03  0.12066448D-04 -0.38536071D-03
  0.10040549D-02  0.15197294D-04  0.23281924D-01  0.41989908D-01  0.61914095D-01
  0.29372346D-01  0.18995573D-02  0.20368815D-04 -0.22558123D-02  0.24219666D-01
  0.75228000D-02 -0.12845828D-02  0.65615533D-02  0.34326085D-03 -0.21109334D-03
 -0.47975391D-04 -0.56763971D-03 -0.23816791D-02  0.40502695D-02 -0.16685904D-02
 -0.12369108D-02 -0.86107057D-03  0.56422636D-02 -0.93341946D-04  0.15375711D-03
 -0.60415161D-04 -0.11630093D-03 -0.89353345D-04 -0.20412557D-03  0.34981898D-01
  0.63091293D-01  0.93028075D-01  0.50482765D-01  0.37759390D-02 -0.22622870D-04
 -0.47467638D-02 -0.32925007D-01  0.17156616D-01 -0.20500371D-02 -0.91543305D-02
  0.34113344D-02 -0.21786977D-03  0.17787920D-03 -0.58903414D-03 -0.47873370D-02
  0.56319247D-02 -0.84458774D-03  0.27325647D-02 -0.18853413D-02 -0.13478534D-01
 -0.10688218D-04  0.84279205D-04 -0.73590987D-04  0.14945255D-03 -0.85995294D-04
  0.24749429D-03
MO    2     MO 0.0        OCC NO =    2.0000000  ORB. ENERGY =    0.000000
 -0.20970055D-02 -0.39084735D-02 -0.66273661D-02 -0.10029814D-01 -0.12511402D-01
 -0.10736644D-01 -0.41115644D-02  0.24225237D-03  0.25992089D-02  0.95811735D-02
  0.28014789D-01  0.33759183D-01 -0.40666514D-01 -0.24405467D-01 -0.13588220D-01
 -0.64453857D-03 -0.86727336D-01 -0.84096342D-01 -0.56730896D-01  0.14414131D+01
  0.13976858D+01  0.94287058D+00  0.29363253D-01  0.28472478D-01  0.19207365D-01
 -0.20449533D-01  0.30282175D+00  0.96633979D-02 -0.40371450D-02  0.30101041D-01
  0.18304748D-02 -0.15123933D-03  0.32204014D-03  0.34759454D-04  0.38126436D-02
 -0.37372757D-02 -0.75367962D-04  0.51995084D-02  0.13099728D-02 -0.13242610D+00
  0.15544805D-02 -0.13362446D-02 -0.21823593D-03  0.72330155D-03  0.90054563D-03
 -0.19884857D-01  0.14965223D-03 -0.94228996D-04 -0.55423237D-04 -0.29065632D-04
  0.13347729D-03  0.55556334D-03  0.32992504D-03  0.70605095D-02 -0.45377113D-03
 -0.93312614D-04 -0.16424154D-01 -0.16740774D-02 -0.89646250D-03 -0.47573745D-02
  0.30353908D-02 -0.64826354D-03  0.10137170D-04  0.12711715D-03 -0.47254225D-04
  0.71665791D-05 -0.10708081D-02 -0.22174881D-03 -0.37578088D-04  0.68945661D-03
  0.36351148D-03 -0.15595887D-03 -0.39945686D-01 -0.72043689D-01 -0.10622838D+00
 -0.68846666D-01 -0.82257972D-02  0.13734993D-03 -0.12448790D-02 -0.22140533D-01
 -0.25392732D-01 -0.70381708D-03 -0.74757237D-02 -0.10099312D-01 -0.12847025D-03
  0.30728256D-03 -0.15141755D-03  0.65217723D-02 -0.39520033D-02 -0.25697690D-02
 -0.68203406D-03 -0.40842678D-03 -0.19142947D-01  0.12838100D-03  0.83077620D-04
 -0.21145862D-03 -0.53937207D-04 -0.45332133D-04 -0.81749918D-03  0.33328768D-01
  0.60109806D-01  0.88631874D-01  0.64239070D-01  0.79854596D-02 -0.11616667D-03
 -0.34297926D-02 -0.16411663D-01  0.24724127D-01 -0.16556761D-02 -0.63774362D-02
  0.10430891D-01 -0.15176273D-03  0.34030787D-03  0.19395980D-03 -0.62983167D-02
  0.28566970D-02  0.34416198D-02  0.23283835D-02 -0.21465936D-02 -0.18903316D-01
 -0.18986991D-04 -0.23200355D-03  0.25099054D-03  0.10512982D-03 -0.10209411D-03
 -0.52930367D-03
MO    3     MO 0.0        OCC NO =    2.0000000  ORB. ENERGY =    0.000000
  0.34435899D+00  0.64182853D+00  0.10883105D+01  0.16470422D+01  0.20545553D+01
  0.17631141D+01  0.67517903D+00  0.89357481D-03  0.95874713D-02  0.35341225D-01
  0.10333567D+00  0.12452450D+00 -0.15000296D+00 -0.51936737D-01 -0.77791126D-01
 -0.93566444D-02  0.33105538D+00  0.32101235D+00  0.21655304D+00 -0.16022693D-01
 -0.15536623D-01 -0.10480914D-01 -0.11139374D+01 -0.10801446D+01 -0.72865917D+00
  0.74238167D-01 -0.41029059D-02 -0.23950593D+00  0.11941871D-01 -0.10511145D-02
 -0.31714677D-01  0.37150452D-03 -0.20175050D-04 -0.62936475D-03 -0.20512574D-01
 -0.74572947D-02  0.27969869D-01  0.12491106D-02 -0.15477532D-01 -0.10305041D-02
 -0.96191458D-03 -0.72299848D-02  0.81918994D-02 -0.47561234D-03 -0.37606563D-02
  0.39481721D-03  0.56196550D-03 -0.10145561D-02  0.45259058D-03 -0.13379567D-03
 -0.19297168D-03  0.22868994D-03 -0.21254843D-02 -0.27936790D-03 -0.15482193D-02
  0.38130656D-02  0.50417558D-03  0.10424613D-01  0.25633874D-02  0.33392811D-03
 -0.57799556D-02 -0.12167584D-02 -0.70880387D-04  0.77344116D-04 -0.41364944D-03
  0.71601235D-04  0.11862828D-04 -0.66040924D-04  0.14103993D-03 -0.24389518D-03
  0.13069892D-02  0.18996947D-03  0.10887463D-01  0.19635987D-01  0.28953251D-01
  0.33343065D-01  0.88112586D-02  0.14777467D-03  0.41750984D-02  0.78908138D-02
 -0.78187850D-02  0.22965746D-02  0.84155647D-02 -0.14679563D-02  0.35675542D-03
  0.50259778D-03 -0.65207607D-03 -0.12250502D-02  0.40469778D-02 -0.28219276D-02
  0.21611329D-02  0.14616051D-02  0.67514197D-03 -0.22974311D-03  0.35416406D-03
 -0.12442095D-03  0.22819969D-03  0.94437906D-04 -0.77819560D-04  0.11090723D-01
  0.20002575D-01  0.29493785D-01  0.34793875D-01  0.83513604D-02  0.13068627D-03
  0.39688642D-02 -0.94451269D-02 -0.79449398D-02  0.19353923D-02 -0.86512501D-02
 -0.15747524D-02  0.35006541D-03 -0.43166610D-03 -0.72801348D-03 -0.12969820D-02
  0.42826774D-02 -0.29856953D-02 -0.15633991D-02  0.15888016D-02 -0.10078130D-02
 -0.15918772D-03  0.31400189D-03 -0.15481417D-03 -0.18523792D-03  0.13910167D-03
  0.23015494D-03
MO    4     MO 0.0        OCC NO =    2.0000000  ORB. ENERGY =    0.000000
 -0.30848443D+00 -0.57496425D+00 -0.97493269D+00 -0.14754570D+01 -0.18405163D+01
 -0.15794368D+01 -0.60484037D+00  0.31907103D-03  0.34234227D-02  0.12619381D-01
  0.36898329D-01  0.44464281D-01 -0.53561938D-01 -0.69715185D-01 -0.34467531D-01
 -0.43133031D-02  0.11993355D+01  0.11629520D+01  0.78452054D+00 -0.16623649D-01
 -0.16119347D-01 -0.10874016D-01 -0.47641968D+00 -0.46196683D+00 -0.31164009D+00
  0.27070720D+00 -0.52345455D-02 -0.10333798D+00  0.44676273D-01 -0.15612317D-02
 -0.13176728D-01  0.14460469D-02 -0.54696115D-04 -0.23523742D-03 -0.65451691D-02
 -0.49008083D-02  0.11445977D-01  0.16675083D-02 -0.48187833D-01 -0.54391859D-03
 -0.41383877D-03 -0.29247315D-02  0.33385703D-02 -0.44487651D-03 -0.12684902D-01
  0.67361632D-03  0.25210883D-03 -0.42599604D-03  0.17388721D-03 -0.15063487D-03
 -0.86332957D-03  0.20331218D-03 -0.70766029D-02 -0.42724522D-03 -0.79898025D-03
  0.14949468D-01  0.18339207D-02  0.29286405D-02  0.62803405D-02 -0.55218507D-03
 -0.53169979D-03 -0.82458566D-03 -0.31630899D-03  0.14964067D-04 -0.53695107D-04
  0.51239131D-03  0.39579297D-04  0.17187675D-03  0.43653567D-03 -0.84471497D-04
 -0.10791427D-04  0.33325260D-03  0.51830604D-02  0.93478629D-02  0.13783418D-01
  0.14942736D-01  0.39190928D-02  0.62692844D-04  0.15197399D-01  0.36225868D-02
 -0.31747686D-02  0.83406860D-02  0.37789277D-02 -0.44878353D-03  0.13196363D-02
  0.19650409D-03 -0.25043890D-03 -0.11093933D-02  0.22755843D-02 -0.11661910D-02
  0.78811518D-02  0.54875121D-02  0.18591529D-02 -0.99716037D-04  0.14132823D-03
 -0.41612196D-04  0.79958030D-03  0.43757551D-03 -0.25205981D-04  0.65296123D-02
  0.11776425D-01  0.17364331D-01  0.18908362D-01  0.43011652D-02  0.62214623D-04
  0.16224034D-01 -0.65731450D-02 -0.18043692D-02  0.87534519D-02 -0.52111542D-02
  0.32592476D-03  0.13858317D-02 -0.28936317D-03 -0.24017244D-03 -0.22549283D-02
  0.32957016D-02 -0.10407734D-02 -0.76482174D-02  0.59013253D-02 -0.42481711D-02
 -0.13263302D-03  0.18208887D-03 -0.49455848D-04 -0.83637073D-03  0.54453685D-03
  0.17814088D-05
MO    5     MO 0.0        OCC NO =    2.0000000  ORB. ENERGY =    0.000000
  0.18836731D+00  0.35108570D+00  0.59531515D+00  0.90094617D+00  0.11238593D+01
  0.96443851D+00  0.36932871D+00 -0.66850417D-03 -0.71726111D-02 -0.26439595D-01
 -0.77307824D-01 -0.93159688D-01  0.11222072D+00  0.91644626D-01  0.52567629D-01
  0.57194186D-02  0.12750955D+01  0.12364137D+01  0.83407741D+00  0.11795537D+00
  0.11437703D+00  0.77158071D-01  0.64951738D+00  0.62981337D+00  0.42486838D+00
  0.28825180D+00  0.24819300D-01  0.14103471D+00  0.47875660D-01  0.22045308D-02
  0.19851723D-01  0.15664586D-02 -0.41052089D-05  0.42018809D-03  0.88834380D-02
  0.84669217D-02 -0.17350360D-01  0.22356120D-02 -0.49461814D-01 -0.12934795D-01
  0.61548590D-03  0.42537191D-02 -0.48692050D-02  0.39263064D-04 -0.13228248D-01
 -0.20693734D-02 -0.20712521D-03  0.48965180D-03 -0.28252659D-03 -0.62396722D-04
 -0.96181868D-03 -0.48389242D-04 -0.74729783D-02  0.25835308D-03  0.17457223D-02
  0.16644721D-01 -0.23939491D-03 -0.58434076D-02  0.57742142D-02 -0.53566433D-03
  0.60624079D-03 -0.45853024D-03 -0.33265828D-03 -0.33150996D-04  0.94637913D-04
  0.56726190D-03 -0.40227819D-04 -0.23506484D-03  0.43071294D-03  0.13968081D-03
 -0.48848898D-04  0.36442630D-03 -0.72914773D-02 -0.13150480D-01 -0.19390375D-01
 -0.22946974D-01 -0.59859600D-02 -0.71779564D-04  0.16138650D-01 -0.42703674D-02
  0.46260413D-02  0.88469754D-02 -0.54826123D-02  0.51996873D-03  0.14082744D-02
 -0.34969923D-03  0.38093282D-03  0.15547913D-02 -0.31949724D-02  0.16401810D-02
  0.83529978D-02  0.58946356D-02 -0.24868676D-02  0.14888940D-03 -0.22325425D-03
  0.74364851D-04  0.84142052D-03  0.49466808D-03 -0.33141814D-04  0.74651015D-03
  0.13463618D-02  0.19852097D-02 -0.99702750D-02 -0.42942197D-02 -0.10022038D-03
  0.17581340D-01 -0.11034137D-03  0.10171377D-01  0.98643574D-02  0.38718878D-02
  0.24829727D-02  0.15183084D-02  0.32871604D-03  0.42742610D-03 -0.19663581D-03
 -0.21684331D-02  0.23650689D-02 -0.91018115D-02  0.65114094D-02 -0.11972385D-02
  0.44021477D-04 -0.18666432D-03  0.14264284D-03 -0.95102310D-03  0.59417422D-03
 -0.17964626D-03
END DATA
 TOTAL ENERGY =    -76.464667775453 THE VIRIAL(-V/T)=   2.00694506
