 64
GAUSSIAN              5 MOL ORBITALS    126 PRIMITIVES        3 NUCLEI   B3LYP   B3LYP   B3LYP
  O    1    (CENTRE  1)   0.00000000  0.00000000  0.00815606  CHARGE =  8.0
  H    2    (CENTRE  2)   0.00000000 -1.34807204 -1.09730160  CHARGE =  1.0
  H    3    (CENTRE  3)  -0.09448631  1.44255835 -1.09730160  CHARGE =  1.0
CENTRE ASSIGNMENTS    1  1  1  1  1  1  1  1  1  1  1  1  1  1  1  1  1  1  1  1
CENTRE ASSIGNMENTS    1  1  1  1  1  1  1  1  1  1  1  1  1  1  1  1  1  1  1  1
CENTRE ASSIGNMENTS    1  1  1  1  1  1  1  1  1  1  1  1  1  1  1  1  1  1  1  1
CENTRE ASSIGNMENTS    1  1  1  1  1  1  1  1  1  1  1  1  2  2  2  2  2  2  2  2
CENTRE ASSIGNMENTS    2  2  2  2  2  2  2  2  2  2  2  2  2  2  2  2  2  2  2  3
CENTRE ASSIGNMENTS    3  3  3  3  3  3  3  3  3  3  3  3  3  3  3  3  3  3  3  3
CENTRE ASSIGNMENTS    3  3  3  3  3  3
TYPE ASSIGNMENTS      1  1  1  1  1  1  1  1  1  1  1  1  1  1  1  1  2  2  2  3
TYPE ASSIGNMENTS      3  3  4  4  4  2  3  4  2  3  4  2  3  4  5  6  7  8  9 10
TYPE ASSIGNMENTS      5  6  7  8  9 10  5  6  7  8  9 10 11 12 13 17 14 15 18 19
TYPE ASSIGNMENTS     16 20 11 12 13 17 14 15 18 19 16 20  1  1  1  1  1  1  2  3
TYPE ASSIGNMENTS      4  2  3  4  2  3  4  5  6  7  8  9 10  5  6  7  8  9 10  1
TYPE ASSIGNMENTS      1  1  1  1  1  2  3  4  2  3  4  2  3  4  5  6  7  8  9 10
TYPE ASSIGNMENTS      5  6  7  8  9 10
EXPONENTS  0.1533000D+05 0.2299000D+04 0.5224000D+03 0.1473000D+03 0.4755000D+02
EXPONENTS  0.1676000D+02 0.6207000D+01 0.5224000D+03 0.1473000D+03 0.4755000D+02
EXPONENTS  0.1676000D+02 0.6207000D+01 0.6882000D+00 0.1752000D+01 0.2384000D+00
EXPONENTS  0.7376000D-01 0.3446000D+02 0.7749000D+01 0.2280000D+01 0.3446000D+02
EXPONENTS  0.7749000D+01 0.2280000D+01 0.3446000D+02 0.7749000D+01 0.2280000D+01
EXPONENTS  0.7156000D+00 0.7156000D+00 0.7156000D+00 0.2140000D+00 0.2140000D+00
EXPONENTS  0.2140000D+00 0.5974000D-01 0.5974000D-01 0.5974000D-01 0.2314000D+01
EXPONENTS  0.2314000D+01 0.2314000D+01 0.2314000D+01 0.2314000D+01 0.2314000D+01
EXPONENTS  0.6450000D+00 0.6450000D+00 0.6450000D+00 0.6450000D+00 0.6450000D+00
EXPONENTS  0.6450000D+00 0.2140000D+00 0.2140000D+00 0.2140000D+00 0.2140000D+00
EXPONENTS  0.2140000D+00 0.2140000D+00 0.1428000D+01 0.1428000D+01 0.1428000D+01
EXPONENTS  0.1428000D+01 0.1428000D+01 0.1428000D+01 0.1428000D+01 0.1428000D+01
EXPONENTS  0.1428000D+01 0.1428000D+01 0.5000000D+00 0.5000000D+00 0.5000000D+00
EXPONENTS  0.5000000D+00 0.5000000D+00 0.5000000D+00 0.5000000D+00 0.5000000D+00
EXPONENTS  0.5000000D+00 0.5000000D+00 0.3387000D+02 0.5095000D+01 0.1159000D+01
EXPONENTS  0.3258000D+00 0.1027000D+00 0.2526000D-01 0.1407000D+01 0.1407000D+01
EXPONENTS  0.1407000D+01 0.3880000D+00 0.3880000D+00 0.3880000D+00 0.1020000D+00
EXPONENTS  0.1020000D+00 0.1020000D+00 0.1057000D+01 0.1057000D+01 0.1057000D+01
EXPONENTS  0.1057000D+01 0.1057000D+01 0.1057000D+01 0.2470000D+00 0.2470000D+00
EXPONENTS  0.2470000D+00 0.2470000D+00 0.2470000D+00 0.2470000D+00 0.3387000D+02
EXPONENTS  0.5095000D+01 0.1159000D+01 0.3258000D+00 0.1027000D+00 0.2526000D-01
EXPONENTS  0.1407000D+01 0.1407000D+01 0.1407000D+01 0.3880000D+00 0.3880000D+00
EXPONENTS  0.3880000D+00 0.1020000D+00 0.1020000D+00 0.1020000D+00 0.1057000D+01
EXPONENTS  0.1057000D+01 0.1057000D+01 0.1057000D+01 0.1057000D+01 0.1057000D+01
EXPONENTS  0.2470000D+00 0.2470000D+00 0.2470000D+00 0.2470000D+00 0.2470000D+00
EXPONENTS  0.2470000D+00
MO    1     MO 0.0        OCC NO =    2.0000000  ORB. ENERGY =    0.000000
  0.31819128D+00  0.59305623D+00  0.10056102D+01  0.15218841D+01  0.18984304D+01
  0.16291358D+01  0.62387244D+00  0.34669252D-03  0.37197832D-02  0.13711821D-01
  0.40092561D-01  0.48313485D-01 -0.58198713D-01  0.15753280D-02 -0.56414763D-01
 -0.78775944D-02  0.22218472D+00  0.21544444D+00  0.14533754D+00  0.16458041D+00
  0.15958764D+00  0.10765688D+00 -0.12602718D+01 -0.12220397D+01 -0.82438076D+00
  0.50724905D-01  0.35248597D-01 -0.27167121D+00  0.87928015D-02  0.42402673D-02
 -0.33007194D-01  0.29678247D-03  0.53816456D-04 -0.63588490D-03 -0.33280837D-01
 -0.25070864D-02  0.35787923D-01 -0.29111136D-02 -0.58595026D-02 -0.11656877D-01
 -0.37107808D-02 -0.60769408D-02  0.97877215D-02  0.15926067D-03 -0.17572940D-02
 -0.26978921D-02  0.71129326D-03 -0.11482952D-02  0.43700195D-03  0.14272423D-03
 -0.19864988D-03 -0.23483699D-03 -0.10057181D-02  0.10329863D-02 -0.16857534D-02
  0.27922146D-02 -0.19253630D-02  0.15233906D-01  0.22493971D-03 -0.11735959D-02
 -0.10176646D-01  0.18828012D-02 -0.44330127D-04 -0.98852699D-04 -0.55499097D-03
  0.12958631D-03 -0.19669944D-03 -0.12545368D-03  0.34040689D-05  0.49325754D-03
  0.17904266D-02 -0.17153451D-03  0.16601239D-01  0.29941018D-01  0.44148014D-01
  0.37519833D-01  0.60816290D-02  0.97178834D-04  0.34367985D-02  0.18174010D-01
 -0.49419291D-02  0.18990226D-02  0.87305323D-02 -0.24911259D-02  0.29791238D-03
  0.13436171D-03 -0.99602857D-03 -0.15987274D-02  0.52287117D-02 -0.36299843D-02
  0.16538065D-02  0.13746205D-02  0.18110527D-02  0.22108724D-04  0.14039912D-03
 -0.16250784D-03  0.18063537D-03  0.15596531D-03 -0.69458839D-03  0.23378398D-01
  0.42163903D-01  0.62170651D-01  0.49683983D-01  0.84160875D-02  0.92393771D-04
  0.45424588D-02 -0.19819290D-01  0.14470533D-03  0.24417200D-02 -0.10179637D-01
  0.13523165D-03  0.29354442D-03 -0.18874439D-03 -0.83868710D-03 -0.29068881D-02
  0.55554632D-02 -0.26485751D-02 -0.27233911D-02  0.16119802D-02 -0.53939367D-02
 -0.99971173D-04  0.16011781D-03 -0.60146640D-04 -0.20487761D-03  0.11305683D-03
  0.31029633D-03
MO    2     MO 0.0        OCC NO =    2.0000000  ORB. ENERGY =    0.000000
  0.38737338D+00  0.72200028D+00  0.12242529D+01  0.18527766D+01  0.23111928D+01
  0.19833473D+01  0.75951665D+00  0.60837567D-03  0.65274717D-02  0.24061490D-01
  0.70354385D-01  0.84780454D-01 -0.10212704D+00 -0.17258670D-01  0.42020764D-02
  0.33967699D-02 -0.11895384D+00 -0.11534521D+00 -0.77811200D-01 -0.74236016D-01
 -0.71983964D-01 -0.48559957D-01  0.88713704D+00  0.86022451D+00  0.58030237D+00
 -0.27096308D-01 -0.18644588D-01  0.19247226D+00 -0.48622337D-02 -0.30801794D-02
  0.20660759D-01 -0.16542006D-03 -0.49159740D-04  0.39909601D-03  0.30720771D-01
 -0.52706784D-02 -0.25450092D-01  0.28422895D-02  0.19444879D-02  0.49962877D-02
  0.50336657D-02  0.22684731D-02 -0.73021388D-02  0.24209904D-03  0.55923260D-03
  0.28160907D-02 -0.53703649D-03  0.84502217D-03 -0.30798568D-03 -0.91854755D-04
  0.10915281D-03  0.40556522D-03  0.41706373D-03 -0.58728905D-03  0.98288879D-03
 -0.14061308D-02  0.17871760D-02 -0.11666914D-01  0.15493958D-03 -0.25308877D-04
  0.87182472D-02 -0.15903727D-02  0.90129676D-05  0.83113747D-04  0.41352960D-03
 -0.69266793D-04  0.20213736D-03 -0.24008432D-03  0.42227890D-04 -0.45147860D-03
 -0.10005045D-02  0.53042909D-04 -0.22752295D-01 -0.41034700D-01 -0.60505641D-01
 -0.38148554D-01 -0.37219918D-02 -0.37820474D-04 -0.18716375D-02 -0.25685849D-01
 -0.81460925D-02 -0.10563362D-02 -0.85988554D-02 -0.11939643D-02 -0.16743905D-03
 -0.45571284D-05  0.64275874D-03  0.43795099D-02 -0.59039545D-02  0.15244446D-02
 -0.91640879D-03 -0.76529298D-03 -0.11123699D-01 -0.48646574D-04 -0.50538133D-04
  0.99184707D-04 -0.10136060D-03 -0.88710198D-04  0.51536653D-03 -0.24679730D-01
 -0.44510910D-01 -0.65631311D-01 -0.40249860D-01 -0.43266568D-02 -0.19957478D-04
 -0.32996888D-02  0.23477121D-01 -0.77654170D-02 -0.15199595D-02  0.80930419D-02
 -0.15558402D-02 -0.15545584D-03 -0.54678255D-04  0.59399802D-03  0.40095641D-02
 -0.53981583D-02  0.13885942D-02  0.21288185D-02 -0.13427041D-02  0.97206537D-02
  0.32071013D-04 -0.38743454D-04  0.66724411D-05  0.10664486D-03 -0.60832523D-04
 -0.27158339D-03
MO    3     MO 0.0        OCC NO =    2.0000000  ORB. ENERGY =    0.000000
  0.46705316D-02  0.87051029D-02  0.14760725D-01  0.22338788D-01  0.27865877D-01
  0.23913068D-01  0.91574348D-02 -0.33533814D-03 -0.35979582D-02 -0.13262751D-01
 -0.38779507D-01 -0.46731192D-01  0.56292673D-01  0.35264521D-01  0.26899717D-01
  0.29052202D-02  0.17280324D+01  0.16756101D+01  0.11303567D+01 -0.13590463D+00
 -0.13178177D+00 -0.88899206D-01  0.25771150D+00  0.24989346D+00  0.16857665D+00
  0.38966059D+00 -0.26720076D-01  0.54841381D-01  0.63385505D-01 -0.16207179D-02
  0.68531152D-02  0.19916126D-02  0.29686901D-04  0.95847036D-04  0.18277001D-02
  0.41977741D-02 -0.60254742D-02 -0.15561842D-02 -0.74466416D-01  0.15681250D-01
 -0.51189217D-03  0.21627196D-02 -0.16508274D-02  0.56920860D-03 -0.18299227D-01
  0.15524684D-02 -0.20369183D-03  0.27288847D-03 -0.69196632D-04  0.12234530D-03
 -0.11081147D-02 -0.15884276D-03 -0.10447084D-01 -0.17195013D-03  0.42221827D-03
  0.21095119D-01 -0.60106625D-03 -0.71810266D-03  0.10246133D-01  0.11169166D-02
 -0.54855215D-03  0.65253160D-03 -0.27849357D-03  0.17367105D-04  0.33809008D-04
  0.35146047D-03  0.35570564D-05  0.41601212D-04  0.48402025D-03 -0.55658371D-04
 -0.14302823D-03 -0.59594173D-03  0.26765538D-02  0.48272750D-02  0.71178142D-02
 -0.51431373D-03 -0.13384911D-02 -0.52080712D-04  0.26268244D-01  0.15039158D-02
  0.64097660D-02  0.14166725D-01 -0.10566798D-02  0.15986758D-02  0.21127884D-02
 -0.78134587D-04  0.16338212D-03 -0.54713926D-03 -0.62078483D-03  0.11679241D-02
  0.12596957D-01  0.98806299D-02  0.22884429D-02  0.15793616D-04 -0.40176861D-04
  0.24383244D-04  0.13397490D-02  0.90016917D-03  0.12250015D-03 -0.72576358D-02
 -0.13089445D-01 -0.19300379D-01 -0.18603021D-01 -0.36530196D-02 -0.26192264D-04
  0.23418548D-01  0.54695856D-02 -0.14263596D-02  0.12611713D-01  0.39697003D-02
 -0.13945148D-02  0.19676239D-02  0.17740707D-03  0.98147595D-04  0.21524728D-02
 -0.22695828D-02  0.11711002D-03 -0.11328115D-01  0.83060420D-02  0.39972857D-02
  0.12802681D-03 -0.10381375D-03 -0.24213055D-04 -0.12047828D-02  0.72038340D-03
  0.96019195D-04
MO    4     MO 0.0        OCC NO =    2.0000000  ORB. ENERGY =    0.000000
  0.87893802D-01  0.16381960D+00  0.27777915D+00  0.42038920D+00  0.52440239D+00
  0.45001527D+00  0.17233194D+00 -0.14484698D-02 -0.15541131D-01 -0.57287535D-01
 -0.16750539D+00 -0.20185214D+00  0.24315230D+00  0.16014352D+00  0.76368853D-01
  0.58407225D-02 -0.39030489D+00 -0.37846445D+00 -0.25530988D+00 -0.50229736D+00
 -0.48705948D+00 -0.32856744D+00  0.23577546D+00  0.22862288D+00  0.15422765D+00
 -0.88599626D-01 -0.10149920D+00  0.50148511D-01 -0.14598043D-01 -0.89888094D-02
  0.10876351D-01 -0.47257556D-03 -0.96334392D-04  0.20300491D-03 -0.13081643D-01
  0.18915423D-01 -0.58337803D-02  0.33973661D-03  0.16796085D-01  0.48607473D-01
 -0.32011772D-02  0.42786845D-02 -0.10775073D-02 -0.49080492D-03  0.44455764D-02
  0.44364242D-02  0.32899759D-04  0.51948299D-04 -0.84848058D-04 -0.64617512D-04
  0.28394979D-03 -0.58340307D-03  0.24673286D-02 -0.21682399D-02  0.22253278D-02
 -0.49647081D-02  0.48427367D-02  0.21719597D-02 -0.24372776D-02  0.16619830D-02
 -0.88479430D-02  0.35695203D-03  0.56654562D-04 -0.66731608D-04 -0.28999881D-03
 -0.30654142D-04  0.69709728D-04 -0.21985684D-03 -0.13930954D-03  0.13048510D-03
  0.10898533D-02  0.62792332D-04  0.26237448D-01  0.47320319D-01  0.69773782D-01
  0.27733945D-01 -0.13693491D-02 -0.12821104D-03 -0.59276110D-02  0.21528188D-01
  0.27739048D-01 -0.31999981D-02  0.13953708D-02  0.65830522D-02 -0.48787708D-03
 -0.53275386D-03  0.15168372D-03 -0.39433899D-02  0.76992248D-03  0.31734675D-02
 -0.28301760D-02 -0.22386372D-02  0.12880795D-01  0.13463034D-03 -0.23731311D-03
  0.10268277D-03 -0.30196322D-03 -0.22016758D-03 -0.74173128D-04 -0.12440154D-03
 -0.22436329D-03 -0.33082355D-03 -0.20230055D-01 -0.70151723D-02 -0.57662548D-04
 -0.53242808D-02 -0.60494703D-02  0.56315924D-02 -0.32937978D-02  0.37584658D-02
 -0.11854330D-02 -0.49073076D-03  0.36871516D-03  0.32048993D-04  0.11454099D-02
 -0.14552434D-02  0.30983351D-03  0.31693674D-02 -0.22655017D-02  0.29304377D-02
  0.12001313D-03 -0.13895196D-03  0.18938827D-04  0.32741315D-03 -0.19731470D-03
  0.28333268D-03
MO    5     MO 0.0        OCC NO =    2.0000000  ORB. ENERGY =    0.000000
  0.16204624D-01  0.30202755D-01  0.51213015D-01  0.77505453D-01  0.96681943D-01
  0.82967491D-01  0.31772141D-01 -0.56810262D-03 -0.60953683D-02 -0.22468675D-01
 -0.65697088D-01 -0.79168186D-01  0.95366469D-01  0.59850566D-01  0.41404483D-01
  0.37504581D-02  0.20555900D-01  0.19932309D-01  0.13446218D-01  0.13769672D+01
  0.13351950D+01  0.90071466D+00  0.32522174D+00  0.31535568D+00  0.21273708D+00
  0.53486650D-02  0.28114887D+00  0.66346148D-01  0.14541670D-02  0.25182209D-01
  0.79479264D-02  0.60488666D-04  0.23128011D-03  0.14305119D-03  0.15507970D-02
  0.78973981D-02 -0.94481952D-02 -0.58721244D-02  0.12082441D-02 -0.12999471D+00
 -0.11650286D-02  0.33401497D-02 -0.21751211D-02 -0.90488445D-03 -0.14305569D-03
 -0.15006245D-01 -0.33451317D-03  0.35462256D-03 -0.20109386D-04  0.14529332D-04
 -0.55506613D-04  0.13592244D-02  0.53716854D-04  0.62921240D-02  0.10555037D-02
 -0.92694683D-03 -0.12878308D-01 -0.13748964D-02  0.76579626D-03 -0.59980644D-02
 -0.17916146D-02  0.62031608D-03  0.20180661D-04  0.10872239D-03  0.95571517D-04
 -0.62462186D-04 -0.64190776D-03  0.17073919D-03  0.19202019D-05  0.31574059D-03
 -0.45745374D-03  0.10344864D-03 -0.35053451D-01 -0.63220342D-01 -0.93218358D-01
 -0.75842253D-01 -0.10609996D-01  0.48692912D-04  0.48525591D-03 -0.20313005D-01
 -0.24708395D-01  0.33128433D-03 -0.96771926D-02 -0.10594789D-01  0.63599406D-04
  0.10948866D-03  0.30778689D-04  0.74310740D-02 -0.41084519D-02 -0.33226222D-02
  0.28538637D-03  0.14795524D-03 -0.21507080D-01  0.11291860D-04  0.12670265D-03
 -0.13799451D-03  0.26039888D-04  0.22545595D-04 -0.19235557D-03  0.36020689D-01
  0.64964796D-01  0.95790554D-01  0.58629940D-01  0.54650651D-02 -0.15262125D-03
  0.27582610D-02 -0.21087182D-01  0.31525351D-01  0.10612055D-02 -0.54151327D-02
  0.11535562D-01  0.67393518D-04  0.32779222D-03  0.40462701D-03 -0.66426811D-02
  0.23781585D-02  0.42645226D-02 -0.18516318D-02  0.18864806D-02 -0.20993762D-01
 -0.50404153D-04 -0.14726747D-03  0.19767162D-03 -0.59548430D-04  0.66374958D-04
 -0.66942272D-03
END DATA
 TOTAL ENERGY =    -76.464423275429 THE VIRIAL(-V/T)=   2.00486654
