 64
GAUSSIAN              5 MOL ORBITALS    126 PRIMITIVES        3 NUCLEI   B3LYP   B3LYP   B3LYP
  O    1    (CENTRE  1)   0.00000000  0.00000000  0.00815606  CHARGE =  8.0
  H    2    (CENTRE  2)   0.00000000 -1.53704465 -1.09730160  CHARGE =  1.0
  H    3    (CENTRE  3)  -0.09448631  1.44255835 -1.09730160  CHARGE =  1.0
CENTRE ASSIGNMENTS    1  1  1  1  1  1  1  1  1  1  1  1  1  1  1  1  1  1  1  1
CENTRE ASSIGNMENTS    1  1  1  1  1  1  1  1  1  1  1  1  1  1  1  1  1  1  1  1
CENTRE ASSIGNMENTS    1  1  1  1  1  1  1  1  1  1  1  1  1  1  1  1  1  1  1  1
CENTRE ASSIGNMENTS    1  1  1  1  1  1  1  1  1  1  1  1  2  2  2  2  2  2  2  2
CENTRE ASSIGNMENTS    2  2  2  2  2  2  2  2  2  2  2  2  2  2  2  2  2  2  2  3
CENTRE ASSIGNMENTS    3  3  3  3  3  3  3  3  3  3  3  3  3  3  3  3  3  3  3  3
CENTRE ASSIGNMENTS    3  3  3  3  3  3
TYPE ASSIGNMENTS      1  1  1  1  1  1  1  1  1  1  1  1  1  1  1  1  2  2  2  3
TYPE ASSIGNMENTS      3  3  4  4  4  2  3  4  2  3  4  2  3  4  5  6  7  8  9 10
TYPE ASSIGNMENTS      5  6  7  8  9 10  5  6  7  8  9 10 11 12 13 17 14 15 18 19
TYPE ASSIGNMENTS     16 20 11 12 13 17 14 15 18 19 16 20  1  1  1  1  1  1  2  3
TYPE ASSIGNMENTS      4  2  3  4  2  3  4  5  6  7  8  9 10  5  6  7  8  9 10  1
TYPE ASSIGNMENTS      1  1  1  1  1  2  3  4  2  3  4  2  3  4  5  6  7  8  9 10
TYPE ASSIGNMENTS      5  6  7  8  9 10
EXPONENTS  0.1533000D+05 0.2299000D+04 0.5224000D+03 0.1473000D+03 0.4755000D+02
EXPONENTS  0.1676000D+02 0.6207000D+01 0.5224000D+03 0.1473000D+03 0.4755000D+02
EXPONENTS  0.1676000D+02 0.6207000D+01 0.6882000D+00 0.1752000D+01 0.2384000D+00
EXPONENTS  0.7376000D-01 0.3446000D+02 0.7749000D+01 0.2280000D+01 0.3446000D+02
EXPONENTS  0.7749000D+01 0.2280000D+01 0.3446000D+02 0.7749000D+01 0.2280000D+01
EXPONENTS  0.7156000D+00 0.7156000D+00 0.7156000D+00 0.2140000D+00 0.2140000D+00
EXPONENTS  0.2140000D+00 0.5974000D-01 0.5974000D-01 0.5974000D-01 0.2314000D+01
EXPONENTS  0.2314000D+01 0.2314000D+01 0.2314000D+01 0.2314000D+01 0.2314000D+01
EXPONENTS  0.6450000D+00 0.6450000D+00 0.6450000D+00 0.6450000D+00 0.6450000D+00
EXPONENTS  0.6450000D+00 0.2140000D+00 0.2140000D+00 0.2140000D+00 0.2140000D+00
EXPONENTS  0.2140000D+00 0.2140000D+00 0.1428000D+01 0.1428000D+01 0.1428000D+01
EXPONENTS  0.1428000D+01 0.1428000D+01 0.1428000D+01 0.1428000D+01 0.1428000D+01
EXPONENTS  0.1428000D+01 0.1428000D+01 0.5000000D+00 0.5000000D+00 0.5000000D+00
EXPONENTS  0.5000000D+00 0.5000000D+00 0.5000000D+00 0.5000000D+00 0.5000000D+00
EXPONENTS  0.5000000D+00 0.5000000D+00 0.3387000D+02 0.5095000D+01 0.1159000D+01
EXPONENTS  0.3258000D+00 0.1027000D+00 0.2526000D-01 0.1407000D+01 0.1407000D+01
EXPONENTS  0.1407000D+01 0.3880000D+00 0.3880000D+00 0.3880000D+00 0.1020000D+00
EXPONENTS  0.1020000D+00 0.1020000D+00 0.1057000D+01 0.1057000D+01 0.1057000D+01
EXPONENTS  0.1057000D+01 0.1057000D+01 0.1057000D+01 0.2470000D+00 0.2470000D+00
EXPONENTS  0.2470000D+00 0.2470000D+00 0.2470000D+00 0.2470000D+00 0.3387000D+02
EXPONENTS  0.5095000D+01 0.1159000D+01 0.3258000D+00 0.1027000D+00 0.2526000D-01
EXPONENTS  0.1407000D+01 0.1407000D+01 0.1407000D+01 0.3880000D+00 0.3880000D+00
EXPONENTS  0.3880000D+00 0.1020000D+00 0.1020000D+00 0.1020000D+00 0.1057000D+01
EXPONENTS  0.1057000D+01 0.1057000D+01 0.1057000D+01 0.1057000D+01 0.1057000D+01
EXPONENTS  0.2470000D+00 0.2470000D+00 0.2470000D+00 0.2470000D+00 0.2470000D+00
EXPONENTS  0.2470000D+00
MO    1     MO 0.0        OCC NO =    2.0000000  ORB. ENERGY =    0.000000
 -0.55291835D-01 -0.10305489D+00 -0.17474404D+00 -0.26445653D+00 -0.32988868D+00
 -0.28309356D+00 -0.10840980D+00 -0.80840692D-03 -0.86736757D-02 -0.31972802D-01
 -0.93486597D-01 -0.11265590D+00  0.13570596D+00  0.76642302D-01  0.57851537D-02
 -0.35304903D-02  0.31993205D+00  0.31022647D+00  0.20927695D+00  0.70849665D+00
  0.68700343D+00  0.46344845D+00 -0.10197709D+01 -0.98883478D+00 -0.66706210D+00
  0.73020970D-01  0.14620161D+00 -0.22345386D+00  0.12956572D-01  0.13554349D-01
 -0.25386017D-01  0.44476186D-03  0.14963112D-03 -0.51757838D-03 -0.37740170D-01
  0.11865770D-01  0.25874400D-01 -0.56621614D-02 -0.75112750D-02 -0.68128415D-01
 -0.64929991D-02 -0.15477412D-02  0.80407403D-02 -0.75880074D-03 -0.25232826D-02
 -0.81220026D-02  0.48039880D-03 -0.90559307D-03  0.42519427D-03  0.86042776D-04
 -0.31510246D-03  0.68880988D-03 -0.14163787D-02  0.31311809D-02  0.36638726D-03
  0.34850388D-02 -0.74982173D-02  0.14540526D-01  0.76409742D-03 -0.18953255D-02
 -0.15639688D-01  0.21602040D-02 -0.76730655D-04  0.16834546D-03 -0.52677352D-03
  0.18584245D-03 -0.36134119D-03  0.30782536D-03  0.44349511D-04 -0.14369518D-03
  0.12724952D-02  0.67944896D-04  0.85018449D-02  0.15333427D-01  0.22609130D-01
  0.89810897D-02  0.91505089D-03  0.10612849D-03  0.42097246D-02  0.15203218D-01
 -0.49495890D-02  0.23576045D-02  0.52406293D-02 -0.38753889D-02  0.38895492D-03
  0.21006750D-03 -0.73229034D-03 -0.70088019D-04  0.32623192D-02 -0.31922312D-02
  0.22555159D-02  0.15636888D-02 -0.17959244D-02 -0.95005874D-04  0.26182784D-03
 -0.16682197D-03  0.21235261D-03  0.15547547D-03 -0.50376112D-03  0.45849404D-01
  0.82691289D-01  0.12192826D+00  0.77096735D-01  0.84637458D-02 -0.28122558D-04
  0.75278835D-02 -0.37349516D-01  0.22000634D-01  0.36190989D-02 -0.12654514D-01
  0.64103345D-02  0.42139451D-03  0.16978029D-03 -0.63945723D-03 -0.68753867D-02
  0.71662084D-02 -0.29082173D-03 -0.44341070D-02  0.32154146D-02 -0.19270747D-01
 -0.49677598D-04  0.66664746D-04 -0.16987148D-04 -0.28508055D-03  0.18153021D-03
  0.85305911D-04
MO    2     MO 0.0        OCC NO =    2.0000000  ORB. ENERGY =    0.000000
  0.73319104D-01  0.13665475D+00  0.23171734D+00  0.35067955D+00  0.43744510D+00
  0.37539298D+00  0.14375557D+00  0.87662162D-03  0.94055748D-02  0.34670720D-01
  0.10137515D+00  0.12216199D+00 -0.14715706D+00 -0.80951448D-01 -0.40902748D-01
 -0.20449448D-02 -0.33697676D+00 -0.32675410D+00 -0.22042639D+00  0.11988589D+01
  0.11624899D+01  0.78420881D+00  0.13810585D+00  0.13391622D+00  0.90339093D-01
 -0.75381804D-01  0.25259617D+00  0.34979947D-01 -0.12070766D-01  0.25219499D-01
  0.34497596D-02 -0.37676019D-03  0.25939852D-03  0.77256465D-04  0.14624493D-01
 -0.11636465D-01 -0.29880286D-02 -0.35788386D-02  0.13990217D-01 -0.10979600D+00
  0.42139472D-02 -0.29306573D-02 -0.12832899D-02 -0.23812946D-03  0.32625717D-02
 -0.17172107D-01  0.12292069D-03 -0.13019999D-04 -0.10990069D-03  0.50356711D-04
  0.19452031D-03  0.36707493D-03  0.20147990D-02  0.59134854D-02 -0.11177628D-02
 -0.49521904D-02 -0.13571756D-01 -0.51882862D-02 -0.10922066D-02 -0.41686999D-02
  0.85415747D-02  0.17204252D-03  0.94491354D-04  0.80808243D-04  0.69684234D-04
 -0.19446630D-03 -0.95871743D-03 -0.36807814D-03 -0.89007757D-04  0.71629270D-03
  0.15902544D-03  0.28429333D-04 -0.42369428D-01 -0.76415009D-01 -0.11267389D+00
 -0.66082207D-01 -0.63336212D-02  0.14344314D-03 -0.41797983D-02 -0.27541651D-01
 -0.26912778D-01 -0.22943227D-02 -0.75716718D-02 -0.93447530D-02 -0.35052414D-03
  0.38166076D-03 -0.32557924D-04  0.64500693D-02 -0.42935262D-02 -0.21565431D-02
 -0.21598594D-02 -0.15613125D-02 -0.18961169D-01  0.10625224D-03  0.79108865D-04
 -0.18536111D-03 -0.23008602D-03 -0.11948333D-03 -0.66169959D-03  0.18610505D-01
  0.33564812D-01  0.49491296D-01  0.45009078D-01  0.73512765D-02 -0.69026670D-04
 -0.34756598D-02 -0.41371371D-02  0.14167781D-01 -0.18391504D-02 -0.40214069D-02
  0.78262879D-02 -0.35058480D-03  0.13636948D-03  0.27230372D-03 -0.42454641D-02
  0.13709386D-02  0.28745255D-02  0.12204065D-02 -0.57055501D-03 -0.12247217D-01
 -0.57468893D-04 -0.16984108D-03  0.22730998D-03  0.20494977D-03 -0.10049886D-03
 -0.53820733D-03
MO    3     MO 0.0        OCC NO =    2.0000000  ORB. ENERGY =    0.000000
  0.15510781D+00  0.28909546D+00  0.49020198D+00  0.74186857D+00  0.92542257D+00
  0.79415024D+00  0.30411735D+00  0.24092921D-03  0.25850123D-02  0.95288421D-02
  0.27861775D-01  0.33574794D-01 -0.40444397D-01 -0.62545722D-02 -0.96273941D-03
  0.11920658D-02  0.16621823D+01  0.16117577D+01  0.10872822D+01  0.12396008D+00
  0.12019958D+00  0.81085927D-01  0.24082703D+00  0.23352121D+00  0.15753203D+00
  0.37545094D+00  0.27901604D-01  0.53091683D-01  0.62107977D-01  0.39505990D-02
  0.54364519D-02  0.20190363D-02  0.88367117D-04  0.73705400D-04  0.77865664D-02
 -0.28182326D-02 -0.49683339D-02  0.24792417D-02 -0.66288056D-01 -0.79995865D-02
  0.13433337D-02  0.32399181D-03 -0.16673255D-02 -0.38751027D-03 -0.17577697D-01
 -0.21020106D-02 -0.15864674D-03  0.24024772D-03 -0.81600978D-04 -0.17030787D-03
 -0.12197664D-02 -0.14698424D-03 -0.98219220D-02  0.11248626D-02 -0.37520494D-03
  0.20997926D-01 -0.34749045D-02 -0.21462342D-02  0.84678395D-02  0.10031686D-03
  0.32718490D-02 -0.11721785D-02 -0.43467514D-03  0.22389275D-05  0.76763422D-04
  0.70414886D-03 -0.16565401D-03 -0.10610652D-03  0.59987656D-03  0.15893723D-03
 -0.12418375D-03  0.49893113D-03 -0.98209064D-02 -0.17712409D-01 -0.26116937D-01
 -0.15879240D-01 -0.20387059D-02 -0.71291981D-05  0.21056367D-01 -0.76094029D-02
 -0.38354229D-02  0.11547600D-01 -0.27003797D-02 -0.12457139D-02  0.18323292D-02
  0.38352643D-04  0.10468656D-03  0.14097810D-02 -0.15650073D-02  0.15522631D-03
  0.10906671D-01  0.76232394D-02 -0.37023967D-02  0.49057443D-04 -0.31425767D-04
 -0.17631676D-04  0.11030817D-02  0.61828242D-03 -0.41547703D-04 -0.66765766D-02
 -0.12041481D-01 -0.17755156D-01 -0.10637071D-01 -0.12434547D-02 -0.19946350D-04
  0.22599464D-01  0.83297282D-02 -0.22946308D-02  0.12421087D-01  0.31969263D-02
 -0.50919079D-03  0.19460580D-02  0.11677690D-03  0.12646099D-03  0.18468753D-02
 -0.22422369D-02  0.39536168D-03 -0.11085662D-01  0.83891968D-02  0.34803759D-02
  0.95171373D-04 -0.11564548D-03  0.20474106D-04 -0.11903413D-02  0.76926445D-03
 -0.27792407D-04
MO    4     MO 0.0        OCC NO =    2.0000000  ORB. ENERGY =    0.000000
  0.42535370D+00  0.79278936D+00  0.13442858D+01  0.20344336D+01  0.25377955D+01
  0.21778061D+01  0.83398404D+00  0.68129251D-03  0.73098216D-02  0.26945379D-01
  0.78786707D-01  0.94941812D-01 -0.11436747D+00 -0.20439182D-01 -0.55759608D-01
 -0.66607790D-02 -0.33680949D+00 -0.32659191D+00 -0.22031697D+00 -0.30675899D+00
 -0.29745303D+00 -0.20066006D+00 -0.78281442D+00 -0.75906666D+00 -0.51206188D+00
 -0.75857021D-01 -0.64605044D-01 -0.16820982D+00 -0.12463730D-01 -0.68021096D-02
 -0.22569160D-01 -0.39767722D-03 -0.78854211D-04 -0.44725259D-03 -0.14650494D-01
 -0.47855095D-02  0.19436003D-01  0.11401723D-03  0.14511188D-01  0.26068234D-01
 -0.54908902D-03 -0.51863946D-02  0.57354836D-02  0.54319440D-03  0.36993358D-02
  0.41143451D-02  0.38574768D-03 -0.71169801D-03  0.32595033D-03  0.96517097D-04
  0.22614999D-03  0.17235015D-04  0.20750236D-02 -0.16561978D-02 -0.94952418D-03
 -0.38141164D-02  0.36256282D-02  0.75736270D-02 -0.24109545D-02  0.13429651D-02
 -0.47250544D-02  0.79875024D-03  0.69711416D-04  0.29356854D-04 -0.31950097D-03
 -0.76867210D-04  0.21899190D-03 -0.11885162D-03 -0.13226704D-03 -0.30706247D-03
  0.10773545D-02 -0.21114274D-03  0.14781021D-01  0.26658180D-01  0.39307471D-01
  0.36715954D-01  0.79920533D-02  0.82542602D-04 -0.42836372D-02  0.90218347D-02
 -0.96451539D-03 -0.23612262D-02  0.72870797D-02  0.91869675D-03 -0.37308440D-03
  0.30577584D-03 -0.42315526D-03 -0.18664267D-02  0.33289597D-02 -0.14625330D-02
 -0.22266309D-02 -0.15103780D-02  0.34869359D-02 -0.18924190D-03  0.23541290D-03
 -0.46171003D-04 -0.22936581D-03 -0.10826851D-03  0.11146319D-03 -0.21006238D-04
 -0.37885615D-04 -0.55862317D-04  0.10253780D-01  0.42567792D-02  0.11761553D-03
 -0.47725036D-02 -0.20119581D-02 -0.11521014D-01 -0.23781370D-02 -0.44327460D-02
 -0.35007044D-02 -0.37933663D-03 -0.36970574D-03 -0.55930574D-03  0.82869934D-03
  0.19995292D-02 -0.28282286D-02  0.22932696D-02 -0.20932754D-02  0.45229092D-02
 -0.11009475D-03  0.26736114D-03 -0.15726639D-03  0.21493894D-03 -0.15904590D-03
  0.27816760D-03
MO    5     MO 0.0        OCC NO =    2.0000000  ORB. ENERGY =    0.000000
  0.21405641D+00  0.39896595D+00  0.67650284D+00  0.10238151D+01  0.12771287D+01
  0.10959664D+01  0.41969690D+00 -0.10513410D-02 -0.11280199D-01 -0.41580939D-01
 -0.12158023D+00 -0.14651008D+00  0.17648692D+00  0.13440620D+00  0.81384508D-01
  0.88205508D-02 -0.34329476D+00 -0.33288044D+00 -0.22455918D+00  0.28744883D+00
  0.27872867D+00  0.18802871D+00  0.92639887D+00  0.89829528D+00  0.60598469D+00
 -0.77825303D-01  0.61099877D-01  0.20037732D+00 -0.13016598D-01  0.63954186D-02
  0.27893267D-01 -0.43468295D-03  0.66895572D-04  0.56056909D-03  0.10868888D-01
  0.12939114D-01 -0.23808002D-01 -0.18049040D-02  0.12613068D-01 -0.26930283D-01
  0.13575392D-03  0.65969794D-02 -0.67327334D-02 -0.52088382D-03  0.34695809D-02
 -0.43683972D-02 -0.36801075D-03  0.75108748D-03 -0.38307672D-03 -0.42897031D-04
  0.28003523D-03 -0.73702033D-04  0.20147280D-02  0.13145523D-02  0.22891796D-02
 -0.51139980D-02 -0.31621241D-02 -0.70843039D-02 -0.93018591D-03 -0.78153288D-03
  0.21676510D-03  0.26491749D-05  0.93477949D-04 -0.24752837D-04  0.13597249D-03
 -0.17898793D-03 -0.16388510D-03 -0.23372527D-03 -0.10144592D-03  0.23814361D-03
 -0.17419221D-03 -0.74619566D-04 -0.12405392D-01 -0.22373635D-01 -0.32989911D-01
 -0.37636118D-01 -0.95456811D-02 -0.10722240D-03 -0.43097789D-02 -0.64375983D-02
  0.54368516D-02 -0.23475743D-02 -0.83014154D-02 -0.41819280D-04 -0.37714825D-03
 -0.47483584D-03  0.50084524D-03  0.25050848D-02 -0.46020496D-02  0.20969648D-02
 -0.22102099D-02 -0.16205620D-02 -0.44459649D-02  0.22705254D-03 -0.30752660D-03
  0.80474059D-04 -0.21999156D-03 -0.15060633D-03 -0.10949833D-03  0.27642985D-02
  0.49855262D-02  0.73511554D-02 -0.12437968D-01 -0.62744112D-02 -0.15878711D-03
 -0.44842107D-02 -0.54134903D-03  0.15896970D-01 -0.28633603D-02  0.59403044D-02
  0.37860972D-02 -0.43279780D-03  0.57256458D-03  0.58573968D-03 -0.17912363D-04
 -0.33947918D-02  0.34127042D-02  0.27145948D-02 -0.15766765D-02 -0.23614608D-02
  0.13563149D-03 -0.33072603D-03  0.19509454D-03  0.29202018D-03 -0.16313929D-03
 -0.22708849D-03
END DATA
 TOTAL ENERGY =    -76.464667775453 THE VIRIAL(-V/T)=   2.00694506
