 65
GAUSSIAN              5 MOL ORBITALS    126 PRIMITIVES        3 NUCLEI   B3LYP   B3LYP   B3LYP
  O    1    (CENTRE  1)   0.00000000  0.00000000  0.00815606  CHARGE =  8.0
  H    2    (CENTRE  2)   0.00000000 -1.44255835 -1.00281530  CHARGE =  1.0
  H    3    (CENTRE  3)   0.09448631  1.44255835 -1.09730160  CHARGE =  1.0
CENTRE ASSIGNMENTS    1  1  1  1  1  1  1  1  1  1  1  1  1  1  1  1  1  1  1  1
CENTRE ASSIGNMENTS    1  1  1  1  1  1  1  1  1  1  1  1  1  1  1  1  1  1  1  1
CENTRE ASSIGNMENTS    1  1  1  1  1  1  1  1  1  1  1  1  1  1  1  1  1  1  1  1
CENTRE ASSIGNMENTS    1  1  1  1  1  1  1  1  1  1  1  1  2  2  2  2  2  2  2  2
CENTRE ASSIGNMENTS    2  2  2  2  2  2  2  2  2  2  2  2  2  2  2  2  2  2  2  3
CENTRE ASSIGNMENTS    3  3  3  3  3  3  3  3  3  3  3  3  3  3  3  3  3  3  3  3
CENTRE ASSIGNMENTS    3  3  3  3  3  3
TYPE ASSIGNMENTS      1  1  1  1  1  1  1  1  1  1  1  1  1  1  1  1  2  2  2  3
TYPE ASSIGNMENTS      3  3  4  4  4  2  3  4  2  3  4  2  3  4  5  6  7  8  9 10
TYPE ASSIGNMENTS      5  6  7  8  9 10  5  6  7  8  9 10 11 12 13 17 14 15 18 19
TYPE ASSIGNMENTS     16 20 11 12 13 17 14 15 18 19 16 20  1  1  1  1  1  1  2  3
TYPE ASSIGNMENTS      4  2  3  4  2  3  4  5  6  7  8  9 10  5  6  7  8  9 10  1
TYPE ASSIGNMENTS      1  1  1  1  1  2  3  4  2  3  4  2  3  4  5  6  7  8  9 10
TYPE ASSIGNMENTS      5  6  7  8  9 10
EXPONENTS  0.1533000D+05 0.2299000D+04 0.5224000D+03 0.1473000D+03 0.4755000D+02
EXPONENTS  0.1676000D+02 0.6207000D+01 0.5224000D+03 0.1473000D+03 0.4755000D+02
EXPONENTS  0.1676000D+02 0.6207000D+01 0.6882000D+00 0.1752000D+01 0.2384000D+00
EXPONENTS  0.7376000D-01 0.3446000D+02 0.7749000D+01 0.2280000D+01 0.3446000D+02
EXPONENTS  0.7749000D+01 0.2280000D+01 0.3446000D+02 0.7749000D+01 0.2280000D+01
EXPONENTS  0.7156000D+00 0.7156000D+00 0.7156000D+00 0.2140000D+00 0.2140000D+00
EXPONENTS  0.2140000D+00 0.5974000D-01 0.5974000D-01 0.5974000D-01 0.2314000D+01
EXPONENTS  0.2314000D+01 0.2314000D+01 0.2314000D+01 0.2314000D+01 0.2314000D+01
EXPONENTS  0.6450000D+00 0.6450000D+00 0.6450000D+00 0.6450000D+00 0.6450000D+00
EXPONENTS  0.6450000D+00 0.2140000D+00 0.2140000D+00 0.2140000D+00 0.2140000D+00
EXPONENTS  0.2140000D+00 0.2140000D+00 0.1428000D+01 0.1428000D+01 0.1428000D+01
EXPONENTS  0.1428000D+01 0.1428000D+01 0.1428000D+01 0.1428000D+01 0.1428000D+01
EXPONENTS  0.1428000D+01 0.1428000D+01 0.5000000D+00 0.5000000D+00 0.5000000D+00
EXPONENTS  0.5000000D+00 0.5000000D+00 0.5000000D+00 0.5000000D+00 0.5000000D+00
EXPONENTS  0.5000000D+00 0.5000000D+00 0.3387000D+02 0.5095000D+01 0.1159000D+01
EXPONENTS  0.3258000D+00 0.1027000D+00 0.2526000D-01 0.1407000D+01 0.1407000D+01
EXPONENTS  0.1407000D+01 0.3880000D+00 0.3880000D+00 0.3880000D+00 0.1020000D+00
EXPONENTS  0.1020000D+00 0.1020000D+00 0.1057000D+01 0.1057000D+01 0.1057000D+01
EXPONENTS  0.1057000D+01 0.1057000D+01 0.1057000D+01 0.2470000D+00 0.2470000D+00
EXPONENTS  0.2470000D+00 0.2470000D+00 0.2470000D+00 0.2470000D+00 0.3387000D+02
EXPONENTS  0.5095000D+01 0.1159000D+01 0.3258000D+00 0.1027000D+00 0.2526000D-01
EXPONENTS  0.1407000D+01 0.1407000D+01 0.1407000D+01 0.3880000D+00 0.3880000D+00
EXPONENTS  0.3880000D+00 0.1020000D+00 0.1020000D+00 0.1020000D+00 0.1057000D+01
EXPONENTS  0.1057000D+01 0.1057000D+01 0.1057000D+01 0.1057000D+01 0.1057000D+01
EXPONENTS  0.2470000D+00 0.2470000D+00 0.2470000D+00 0.2470000D+00 0.2470000D+00
EXPONENTS  0.2470000D+00
MO    1     MO 0.0        OCC NO =    2.0000000  ORB. ENERGY =    0.000000
 -0.11016168D-01 -0.20532326D-01 -0.34815443D-01 -0.52689472D-01 -0.65725963D-01
 -0.56402654D-01 -0.21599220D-01  0.27037226D-03  0.29009169D-02  0.10693326D-01
  0.31266658D-01  0.37677843D-01 -0.45386955D-01 -0.29048512D-01  0.37302543D-01
  0.78276078D-02 -0.10759678D+00 -0.10433268D+00 -0.70382209D-01 -0.14891538D+00
 -0.14439783D+00 -0.97409924D-01  0.15151949D+01  0.14692293D+01  0.99113343D+00
 -0.23667097D-01 -0.32314029D-01  0.32903645D+00 -0.31542047D-02 -0.36271845D-02
  0.38957086D-01 -0.77306111D-04 -0.26688405D-04  0.78644774D-03  0.45181395D-01
 -0.57764872D-02 -0.39404908D-01 -0.37093384D-02  0.94440614D-02  0.13169467D-01
  0.61700449D-02  0.54599357D-02 -0.11629981D-01 -0.15847621D-03  0.20368983D-02
  0.25358804D-02 -0.87102692D-03  0.14849049D-02 -0.61387803D-03  0.14129776D-03
  0.30386363D-05  0.10085850D-03  0.11039778D-02 -0.70561761D-03  0.55790118D-03
 -0.14044261D-02  0.17707731D-02 -0.18542590D-01 -0.19075074D-02  0.34607968D-03
  0.16868887D-01  0.23733903D-02  0.14684345D-04  0.30415547D-04  0.67636403D-03
  0.70509226D-04  0.23100817D-03 -0.36835822D-04 -0.11456226D-03 -0.32225481D-03
 -0.19922563D-02 -0.64089328D-04 -0.26411375D-01 -0.47634002D-01 -0.70236308D-01
 -0.49788106D-01 -0.67547949D-02 -0.10073048D-03 -0.14894193D-02 -0.29421105D-01
  0.10030961D-02 -0.75234339D-03 -0.11782809D-01  0.22054642D-02 -0.98777034D-04
 -0.88686232D-04  0.11817230D-02  0.34673193D-02 -0.77847223D-02  0.43174030D-02
 -0.70094244D-03 -0.44530686D-03 -0.60167272D-02  0.16492846D-04 -0.19700703D-03
  0.18051419D-03 -0.80032238D-04 -0.46818657D-05  0.85081831D-03 -0.35403411D-01
 -0.63851510D-01 -0.94149014D-01 -0.65640013D-01 -0.93236148D-02 -0.81258609D-04
  0.81824030D-03  0.32056339D-01 -0.67724047D-02  0.22266288D-03  0.13430496D-01
 -0.15286689D-02 -0.82149627D-04  0.16484845D-03  0.10357165D-02  0.49483749D-02
 -0.78083703D-02  0.28599954D-02 -0.10677416D-02  0.36538983D-03  0.11408069D-01
  0.13321793D-03 -0.23412318D-03  0.10090525D-03  0.20798404D-04 -0.25968190D-04
 -0.40629451D-03
MO    2     MO 0.0        OCC NO =    2.0000000  ORB. ENERGY =    0.000000
  0.20587443D-01  0.38371609D-01  0.65064455D-01  0.98468134D-01  0.12283124D+00
  0.10540747D+00  0.40365463D-01  0.61722019D-04  0.66223676D-03  0.24411294D-02
  0.71377191D-02  0.86012986D-02 -0.10361176D-01 -0.45259218D-02  0.68793129D-02
  0.11454578D-02 -0.34882356D-02 -0.33824151D-02 -0.22817573D-02  0.14659916D+01
  0.14215188D+01  0.95894815D+00  0.16625338D+00  0.16120985D+00  0.10875122D+00
 -0.16497545D-02  0.29888016D+00  0.34393630D-01 -0.88100974D-03  0.25761929D-01
  0.31458371D-02 -0.45286262D-04  0.22587045D-03  0.71579554D-04  0.67720237D-02
 -0.53304399D-02 -0.14415838D-02  0.54092573D-02 -0.17952666D-02 -0.13571639D+00
  0.45109486D-03  0.68773426D-03 -0.11388291D-02  0.71395786D-03  0.85979927D-04
 -0.15587325D-01 -0.26859150D-03  0.36153129D-03 -0.92939792D-04 -0.34398485D-04
  0.62226802D-04  0.16044312D-02 -0.10479901D-03  0.71361824D-02  0.31032498D-03
  0.95604939D-03 -0.14010640D-01 -0.18149110D-02 -0.64165237D-03 -0.73979073D-02
  0.88393608D-03 -0.41529827D-03 -0.20350137D-04  0.13715320D-03  0.16567501D-03
  0.73609124D-04 -0.62767884D-03  0.16632984D-03 -0.12558712D-04  0.21621926D-03
 -0.66335488D-03 -0.11736946D-03 -0.42974279D-01 -0.77505882D-01 -0.11428238D+00
 -0.81028766D-01 -0.92613784D-02  0.91423979D-04 -0.21772918D-03 -0.30227988D-01
 -0.30259374D-01 -0.16796116D-03 -0.10653197D-01 -0.11285704D-01 -0.41924653D-04
  0.26097290D-03 -0.28203763D-04  0.84418844D-02 -0.64877462D-02 -0.19541382D-02
 -0.15444517D-03 -0.54129101D-04 -0.24525342D-01 -0.57898984D-04  0.19571623D-03
 -0.13781725D-03 -0.58800241D-05 -0.21355842D-04 -0.27234192D-03  0.33466983D-01
  0.60359082D-01  0.88999431D-01  0.62458100D-01  0.75456052D-02 -0.11569813D-03
 -0.23303530D-02 -0.17805455D-01  0.26755127D-01 -0.10102370D-02 -0.65131550D-02
  0.10998577D-01 -0.58820416D-04  0.17819087D-03  0.34793969D-03 -0.66642343D-02
  0.31120514D-02  0.35521828D-02  0.18085896D-02 -0.17672687D-02 -0.20296139D-01
 -0.29332328D-04 -0.15396169D-03  0.18329402D-03  0.54478512D-04 -0.60471654D-04
 -0.70903572D-03
MO    3     MO 0.0        OCC NO =    2.0000000  ORB. ENERGY =    0.000000
  0.50561834D+00  0.94238944D+00  0.15979537D+01  0.24183331D+01  0.30166799D+01
  0.25887601D+01  0.99135760D+00  0.24612005D-03  0.26407066D-02  0.97341418D-02
  0.28462060D-01  0.34298166D-01 -0.41315775D-01  0.34139483D-01 -0.71339914D-02
 -0.23732595D-03  0.81798580D-01  0.79317107D-01  0.53506852D-01 -0.61332728D-01
 -0.59472115D-01 -0.40119537D-01  0.26512787D-01  0.25708485D-01  0.17342792D-01
  0.18443757D-01 -0.13587829D-01  0.66256741D-02  0.30776352D-02 -0.15420804D-02
  0.11868130D-03  0.98779974D-04 -0.23035488D-04  0.26674214D-06  0.74295156D-03
  0.15292569D-03 -0.89587724D-03 -0.52138888D-03 -0.31601363D-02  0.63852970D-02
  0.81114596D-03 -0.56772630D-03 -0.24341965D-03 -0.14540648D-03 -0.74436812D-03
  0.12266547D-02  0.43693609D-05  0.28556735D-05 -0.72250343D-05  0.33818521D-05
 -0.54016581D-04  0.19645950D-04 -0.49213480D-03 -0.39164353D-03  0.40530597D-03
  0.10832619D-02  0.11560011D-02  0.31392330D-03  0.39314245D-03  0.18929497D-04
 -0.15298412D-02 -0.39709642D-04  0.14480837D-08  0.11413629D-04 -0.10693908D-03
 -0.11035353D-04  0.29024310D-04 -0.28944848D-03  0.11031009D-04 -0.63265198D-04
  0.61026572D-03  0.43266244D-04 -0.13997906D-02 -0.25245800D-02 -0.37224918D-02
 -0.15410894D-02  0.61897398D-04 -0.43623470D-05  0.12208058D-02 -0.35066351D-02
 -0.15571982D-02  0.67231577D-03 -0.12865353D-02 -0.59682333D-03  0.10341567D-03
 -0.57925460D-04 -0.29335741D-04  0.14342431D-02 -0.15980261D-02  0.16378298D-03
  0.62026563D-03  0.42914225D-03 -0.38411835D-02  0.12700211D-04 -0.18106397D-04
  0.54061860D-05  0.67770410D-04  0.40258506D-04 -0.23690125D-04 -0.43461950D-02
 -0.78385416D-02 -0.11557925D-01 -0.60909612D-02 -0.28811020D-03  0.15832626D-04
  0.14537554D-02  0.42377323D-02 -0.33465075D-02  0.72824529D-03  0.12456286D-02
 -0.11249669D-02  0.98597375D-04 -0.29145816D-04 -0.12526825D-04  0.15530706D-02
 -0.13076200D-02 -0.24545065D-03 -0.96190403D-03  0.73750134D-03  0.44959324D-02
 -0.54041943D-06  0.19558769D-04 -0.19018350D-04 -0.62132720D-04  0.41500407D-04
  0.33336384D-04
MO    4     MO 0.0        OCC NO =    2.0000000  ORB. ENERGY =    0.000000
 -0.55043360D-01 -0.10259177D+00 -0.17395877D+00 -0.26326810D+00 -0.32840620D+00
 -0.28182138D+00 -0.10792262D+00 -0.15969894D-02 -0.17134648D-01 -0.63161540D-01
 -0.18468064D+00 -0.22254915D+00  0.26808403D+00  0.15831437D+00  0.93504520D-01
  0.80010130D-02  0.58339386D+00  0.56569580D+00  0.38161504D+00  0.20472207D-01
  0.19851154D-01  0.13391471D-01  0.55116915D+00  0.53444867D+00  0.36053592D+00
  0.13202745D+00  0.48209250D-02  0.11697728D+00  0.21568261D-01  0.51486479D-03
  0.18980963D-01  0.69443906D-03 -0.63579073D-05  0.38631746D-03 -0.55836923D-02
  0.21411719D-01 -0.15828027D-01  0.40279549D-03 -0.24273800D-01 -0.30010246D-02
 -0.28229647D-02  0.65480880D-02 -0.37251232D-02  0.61819700D-03 -0.62388070D-02
 -0.13481884D-02 -0.20864766D-03  0.39687867D-03 -0.18823101D-03  0.70299521D-04
 -0.40099728D-03 -0.29356813D-04 -0.36032584D-02 -0.22425465D-03  0.25495417D-02
  0.82759223D-02  0.33126412D-03 -0.14752886D-02  0.25338528D-02  0.34149984D-03
 -0.61733364D-02 -0.48287753D-03 -0.10107966D-03  0.17218706D-04 -0.13357962D-03
  0.11040324D-03 -0.92982537D-04 -0.36120336D-04  0.19283573D-03  0.41326418D-04
  0.43685918D-03 -0.13705718D-03  0.90598911D-02  0.16339887D-01  0.24093153D-01
 -0.68327826D-02 -0.60629343D-02 -0.11856842D-03  0.86050920D-02  0.10852356D-01
  0.16917521D-01  0.46614403D-02 -0.33490135D-02  0.31510346D-02  0.71128686D-03
 -0.49181276D-03  0.37493504D-03 -0.85866718D-03 -0.13104755D-02  0.21691427D-02
  0.43096213D-02  0.30090362D-02  0.51485832D-02  0.14115619D-03 -0.24125003D-03
  0.10009385D-03  0.46529824D-03  0.29358991D-03  0.41196563D-04  0.95646944D-02
  0.17250320D-01  0.25435587D-01 -0.46059405D-02 -0.58709424D-02 -0.12710577D-03
  0.72977941D-02 -0.10351329D-01  0.17041812D-01  0.45236742D-02  0.30671243D-02
  0.32293729D-02  0.70889394D-03  0.51065424D-03  0.33461903D-03 -0.10964878D-02
 -0.13450183D-02  0.24415061D-02 -0.39571154D-02  0.26436190D-02 -0.48583937D-02
  0.11999602D-03 -0.24027768D-03  0.12028166D-03 -0.46330889D-03  0.27620181D-03
 -0.45170624D-04
MO    5     MO 0.0        OCC NO =    2.0000000  ORB. ENERGY =    0.000000
 -0.53601223D-02 -0.99903866D-02 -0.16940104D-01 -0.25637047D-01 -0.31980195D-01
 -0.27443765D-01 -0.10509504D-01  0.57105497D-03  0.61270451D-02  0.22585442D-01
  0.66038507D-01  0.79579612D-01 -0.95862076D-01 -0.59570395D-01 -0.32427547D-01
 -0.26825529D-02  0.16857593D+01  0.16346195D+01  0.11027047D+01 -0.30424783D-01
 -0.29501806D-01 -0.19901744D-01 -0.79366316D-01 -0.76958629D-01 -0.51915836D-01
  0.38039553D+00 -0.77249540D-02 -0.15613655D-01  0.62147226D-01 -0.17419125D-02
 -0.28263724D-02  0.19718669D-02 -0.61500353D-04 -0.21523168D-04  0.64430433D-02
 -0.78419758D-02  0.13989324D-02 -0.48270732D-02 -0.69089184D-01 -0.10352803D-03
  0.19884335D-02 -0.21981246D-02  0.20969104D-03 -0.37398641D-03 -0.17212282D-01
  0.69750306D-03  0.10857385D-03 -0.10610149D-03 -0.24723546D-05  0.68460527D-04
 -0.10905431D-02  0.96372918D-04 -0.10027131D-01 -0.51973738D-03 -0.50916089D-03
  0.21929806D-01  0.21608924D-02 -0.22795854D-02  0.81515876D-02 -0.60168025D-03
  0.38070680D-02  0.11136023D-03 -0.27019475D-03 -0.14763186D-04  0.96278087D-04
  0.34167670D-03  0.96035762D-04 -0.73944026D-04  0.46890756D-03 -0.51746203D-04
 -0.21489023D-03 -0.42453018D-03 -0.48229977D-02 -0.86984750D-02 -0.12825896D-01
 -0.52377102D-03  0.18133305D-02  0.43139161D-04  0.25057100D-01 -0.59941787D-02
 -0.54972616D-02  0.13636611D-01  0.28004394D-03 -0.65646648D-03  0.20640150D-02
  0.11282673D-03 -0.59997248D-05  0.53205210D-03 -0.21907980D-03 -0.31297230D-03
  0.12704257D-01  0.86519822D-02 -0.20683905D-02 -0.44972392D-04  0.40781721D-04
  0.41906710D-05  0.13646078D-02  0.79658684D-03  0.37715109D-04 -0.31407403D-02
 -0.56644545D-02 -0.83522349D-02  0.21551573D-02  0.21244098D-02  0.40496521D-04
  0.23513029D-01  0.29273287D-02 -0.42831735D-02  0.12632957D-01 -0.14991730D-02
 -0.22630348D-03  0.19536048D-02 -0.24346613D-03  0.93256527D-05 -0.58318582D-03
  0.87150856D-03 -0.28832274D-03 -0.11452147D-01  0.86116662D-02  0.37715743D-03
 -0.12285142D-03  0.11993774D-03  0.29136776D-05 -0.12073489D-02  0.75486974D-03
 -0.10006225D-03
END DATA
 TOTAL ENERGY =    -76.465228348231 THE VIRIAL(-V/T)=   2.00526270
