 65
GAUSSIAN              5 MOL ORBITALS    126 PRIMITIVES        3 NUCLEI   B3LYP   B3LYP   B3LYP
  O    1    (CENTRE  1)   0.00000000  0.00000000  0.00815606  CHARGE =  8.0
  H    2    (CENTRE  2)   0.00000000 -1.44255835 -1.19178791  CHARGE =  1.0
  H    3    (CENTRE  3)   0.09448631  1.44255835 -1.09730160  CHARGE =  1.0
CENTRE ASSIGNMENTS    1  1  1  1  1  1  1  1  1  1  1  1  1  1  1  1  1  1  1  1
CENTRE ASSIGNMENTS    1  1  1  1  1  1  1  1  1  1  1  1  1  1  1  1  1  1  1  1
CENTRE ASSIGNMENTS    1  1  1  1  1  1  1  1  1  1  1  1  1  1  1  1  1  1  1  1
CENTRE ASSIGNMENTS    1  1  1  1  1  1  1  1  1  1  1  1  2  2  2  2  2  2  2  2
CENTRE ASSIGNMENTS    2  2  2  2  2  2  2  2  2  2  2  2  2  2  2  2  2  2  2  3
CENTRE ASSIGNMENTS    3  3  3  3  3  3  3  3  3  3  3  3  3  3  3  3  3  3  3  3
CENTRE ASSIGNMENTS    3  3  3  3  3  3
TYPE ASSIGNMENTS      1  1  1  1  1  1  1  1  1  1  1  1  1  1  1  1  2  2  2  3
TYPE ASSIGNMENTS      3  3  4  4  4  2  3  4  2  3  4  2  3  4  5  6  7  8  9 10
TYPE ASSIGNMENTS      5  6  7  8  9 10  5  6  7  8  9 10 11 12 13 17 14 15 18 19
TYPE ASSIGNMENTS     16 20 11 12 13 17 14 15 18 19 16 20  1  1  1  1  1  1  2  3
TYPE ASSIGNMENTS      4  2  3  4  2  3  4  5  6  7  8  9 10  5  6  7  8  9 10  1
TYPE ASSIGNMENTS      1  1  1  1  1  2  3  4  2  3  4  2  3  4  5  6  7  8  9 10
TYPE ASSIGNMENTS      5  6  7  8  9 10
EXPONENTS  0.1533000D+05 0.2299000D+04 0.5224000D+03 0.1473000D+03 0.4755000D+02
EXPONENTS  0.1676000D+02 0.6207000D+01 0.5224000D+03 0.1473000D+03 0.4755000D+02
EXPONENTS  0.1676000D+02 0.6207000D+01 0.6882000D+00 0.1752000D+01 0.2384000D+00
EXPONENTS  0.7376000D-01 0.3446000D+02 0.7749000D+01 0.2280000D+01 0.3446000D+02
EXPONENTS  0.7749000D+01 0.2280000D+01 0.3446000D+02 0.7749000D+01 0.2280000D+01
EXPONENTS  0.7156000D+00 0.7156000D+00 0.7156000D+00 0.2140000D+00 0.2140000D+00
EXPONENTS  0.2140000D+00 0.5974000D-01 0.5974000D-01 0.5974000D-01 0.2314000D+01
EXPONENTS  0.2314000D+01 0.2314000D+01 0.2314000D+01 0.2314000D+01 0.2314000D+01
EXPONENTS  0.6450000D+00 0.6450000D+00 0.6450000D+00 0.6450000D+00 0.6450000D+00
EXPONENTS  0.6450000D+00 0.2140000D+00 0.2140000D+00 0.2140000D+00 0.2140000D+00
EXPONENTS  0.2140000D+00 0.2140000D+00 0.1428000D+01 0.1428000D+01 0.1428000D+01
EXPONENTS  0.1428000D+01 0.1428000D+01 0.1428000D+01 0.1428000D+01 0.1428000D+01
EXPONENTS  0.1428000D+01 0.1428000D+01 0.5000000D+00 0.5000000D+00 0.5000000D+00
EXPONENTS  0.5000000D+00 0.5000000D+00 0.5000000D+00 0.5000000D+00 0.5000000D+00
EXPONENTS  0.5000000D+00 0.5000000D+00 0.3387000D+02 0.5095000D+01 0.1159000D+01
EXPONENTS  0.3258000D+00 0.1027000D+00 0.2526000D-01 0.1407000D+01 0.1407000D+01
EXPONENTS  0.1407000D+01 0.3880000D+00 0.3880000D+00 0.3880000D+00 0.1020000D+00
EXPONENTS  0.1020000D+00 0.1020000D+00 0.1057000D+01 0.1057000D+01 0.1057000D+01
EXPONENTS  0.1057000D+01 0.1057000D+01 0.1057000D+01 0.2470000D+00 0.2470000D+00
EXPONENTS  0.2470000D+00 0.2470000D+00 0.2470000D+00 0.2470000D+00 0.3387000D+02
EXPONENTS  0.5095000D+01 0.1159000D+01 0.3258000D+00 0.1027000D+00 0.2526000D-01
EXPONENTS  0.1407000D+01 0.1407000D+01 0.1407000D+01 0.3880000D+00 0.3880000D+00
EXPONENTS  0.3880000D+00 0.1020000D+00 0.1020000D+00 0.1020000D+00 0.1057000D+01
EXPONENTS  0.1057000D+01 0.1057000D+01 0.1057000D+01 0.1057000D+01 0.1057000D+01
EXPONENTS  0.2470000D+00 0.2470000D+00 0.2470000D+00 0.2470000D+00 0.2470000D+00
EXPONENTS  0.2470000D+00
MO    1     MO 0.0        OCC NO =    2.0000000  ORB. ENERGY =    0.000000
  0.37957476D-01  0.70746494D-01  0.11996062D+00  0.18154765D+00  0.22646638D+00
  0.19434185D+00  0.74422603D-01 -0.25214090D-03 -0.27053064D-02 -0.99722689D-02
 -0.29158329D-01 -0.35137204D-01  0.42326486D-01  0.29860161D-01 -0.35972347D-01
 -0.78962164D-02  0.92663673D-01  0.89852593D-01  0.60614028D-01  0.29444056D+00
  0.28550830D+00  0.19260221D+00 -0.14686706D+01 -0.14241165D+01 -0.96070057D+00
  0.20204334D-01  0.59866325D-01 -0.31954183D+00  0.25732743D-02  0.52210717D-02
 -0.37984031D-01  0.58763567D-04  0.60277389D-04 -0.72229625D-03 -0.44353732D-01
  0.47579254D-02  0.39595806D-01  0.45801498D-02 -0.87792503D-02 -0.28399626D-01
 -0.65774050D-02 -0.52270299D-02  0.11804435D-01  0.22974525D-03 -0.18606304D-02
 -0.32023193D-02  0.69209462D-03 -0.12821750D-02  0.59008038D-03 -0.15002288D-03
  0.37363643D-05  0.34942815D-03 -0.99456907D-03  0.12893775D-02 -0.14439734D-02
  0.11730999D-02 -0.25646225D-02  0.18698628D-01  0.18106073D-02 -0.13035100D-02
 -0.14366708D-01 -0.23796820D-02 -0.23450225D-04  0.56468751D-04 -0.71942803D-03
 -0.53989360D-04 -0.68659144D-04  0.37158125D-03  0.12434003D-03 -0.10074711D-03
  0.17867028D-02  0.10427693D-03  0.23741875D-01  0.42819450D-01  0.63137254D-01
  0.43854142D-01  0.72808358D-02  0.12694455D-03  0.11047453D-02  0.23683111D-01
 -0.17126053D-03  0.56267540D-03  0.10963842D-01 -0.74275595D-03  0.73836150D-04
  0.34918764D-03 -0.90381614D-03 -0.27606689D-02  0.59697766D-02 -0.32091076D-02
  0.51109363D-03  0.33897234D-03  0.55361466D-02 -0.17933902D-03  0.30622032D-03
 -0.12688130D-03  0.58229604D-04 -0.38078188D-05 -0.25703042D-03  0.37803910D-01
  0.68180908D-01  0.10053271D+00  0.70345731D-01  0.98485420D-02  0.72099578D-04
 -0.12050103D-02 -0.33383610D-01  0.92268156D-02 -0.41169597D-03 -0.13977627D-01
  0.25501595D-02  0.59793406D-04 -0.11984343D-03 -0.92386308D-03 -0.55822615D-02
  0.79491612D-02 -0.23668998D-02  0.13129101D-02 -0.60386246D-03 -0.13269633D-01
 -0.12064533D-03  0.20294575D-03 -0.82300429D-04 -0.62664456D-05  0.17117671D-04
  0.29992145D-03
MO    2     MO 0.0        OCC NO =    2.0000000  ORB. ENERGY =    0.000000
  0.94891636D-01  0.17686241D+00  0.29989507D+00  0.45385929D+00  0.56615369D+00
  0.48584410D+00  0.18605248D+00 -0.21800292D-03 -0.23390283D-02 -0.86220986D-02
 -0.25210511D-01 -0.30379891D-01  0.36595798D-01  0.33497816D-01  0.12914092D-01
  0.90561819D-03  0.15693604D+01  0.15217517D+01  0.10265647D+01 -0.61770539D+00
 -0.59896644D+00 -0.40405922D+00  0.71319145D-01  0.69155580D-01  0.46651946D-01
  0.35485296D+00 -0.13034482D+00  0.15014705D-01  0.58975395D-01 -0.13988468D-01
  0.26984042D-02  0.19153183D-02 -0.19467873D-03  0.84380485D-04  0.11343765D-03
  0.14591256D-02 -0.15725633D-02  0.14548822D-02 -0.62617500D-01  0.55034556D-01
 -0.12887252D-03  0.62816057D-03 -0.49928805D-03 -0.16433532D-04 -0.16853409D-01
  0.83542291D-02 -0.10577841D-04  0.50268787D-04 -0.39690946D-04 -0.51826533D-04
 -0.11980551D-02 -0.14473210D-03 -0.92220599D-02 -0.31076602D-02  0.83477164D-03
  0.18359294D-01  0.82828629D-02 -0.82755897D-03  0.93068854D-02  0.10401178D-02
 -0.16767559D-02  0.32993049D-03 -0.39943877D-03 -0.59901781D-04 -0.58708594D-05
  0.60275732D-03  0.49075397D-03 -0.42670635D-04  0.59555899D-03 -0.31104863D-03
  0.60283213D-04  0.43496025D-03  0.16220321D-01  0.29254017D-01  0.43135030D-01
  0.26443749D-01  0.27294109D-02 -0.63640092D-04  0.20364989D-01  0.79213912D-02
  0.12967610D-01  0.11114945D-01  0.19869526D-02  0.48911195D-02  0.17516477D-02
 -0.23488884D-03  0.14333241D-03 -0.25252965D-02  0.40535413D-03  0.21199423D-02
  0.10011784D-01  0.79479953D-02  0.77284420D-02 -0.42354955D-04 -0.93695055D-04
  0.13605001D-03  0.10104506D-02  0.66009617D-03  0.30147853D-03 -0.12161527D-01
 -0.21933815D-01 -0.32341397D-01 -0.25609658D-01 -0.37525855D-02  0.35077748D-04
  0.22579969D-01  0.46529015D-02 -0.76194022D-02  0.12248558D-01  0.24789076D-02
 -0.35214426D-02  0.18479530D-02 -0.13692028D-03 -0.96002501D-06  0.18976839D-02
 -0.92814691D-03 -0.96953698D-03 -0.11565862D-01  0.86623808D-02  0.69288630D-02
 -0.27118324D-04  0.84894351D-04 -0.57776027D-04 -0.11452097D-02  0.72156012D-03
  0.16695048D-03
MO    3     MO 0.0        OCC NO =    2.0000000  ORB. ENERGY =    0.000000
 -0.33833171D-01 -0.63059467D-01 -0.10692619D+00 -0.16182142D+00 -0.20185946D+00
 -0.17322545D+00 -0.66336144D-01  0.13617040D-03  0.14610190D-02  0.53855912D-02
  0.15747153D-01  0.18976085D-01 -0.22858705D-01 -0.17405242D-01 -0.27620511D-02
  0.58418439D-03  0.78542428D+00  0.76159735D+00  0.51376908D+00  0.12726869D+01
  0.12340781D+01  0.83250182D+00  0.25891480D+00  0.25106026D+00  0.16936377D+00
  0.17670487D+00  0.26657764D+00  0.58439147D-01  0.28725815D-01  0.26690703D-01
  0.78013890D-02  0.91219800D-03  0.26902927D-03  0.15783165D-03  0.84882979D-02
  0.14792960D-02 -0.99675939D-02  0.61844581D-02 -0.33142387D-01 -0.12058552D+00
  0.19861654D-02  0.49633484D-03 -0.24825003D-02  0.75083176D-03 -0.83453568D-02
 -0.17601504D-01  0.50819420D-04  0.79040421D-04 -0.12985984D-03 -0.44497680D-04
 -0.53545053D-03  0.41831375D-03 -0.47612088D-02  0.54207629D-02  0.50121509D-04
  0.10319189D-01 -0.12989960D-01 -0.46183670D-02  0.39644372D-02 -0.32723282D-02
  0.44680024D-02 -0.28159840D-03 -0.21828019D-03  0.70413346D-04  0.88129578D-04
  0.37505883D-03 -0.92015157D-03 -0.26135024D-03  0.27978174D-03  0.70891154D-03
 -0.30384940D-05  0.54325292D-04 -0.37990601D-01 -0.68517613D-01 -0.10102918D+00
 -0.67381281D-01 -0.85742020D-02  0.10937055D-03  0.10043544D-01 -0.20262125D-01
 -0.24182550D-01  0.54497527D-02 -0.75289825D-02 -0.95904387D-02  0.84193758D-03
  0.21994448D-03 -0.11858161D-04  0.63157392D-02 -0.29825885D-02 -0.33331507D-02
  0.48972543D-02  0.39799778D-02 -0.18215557D-01  0.16726613D-03  0.45058807D-04
 -0.21232494D-03  0.50293134D-03  0.32292950D-03 -0.64670814D-03  0.27815292D-01
  0.50166025D-01  0.73969775D-01  0.52565835D-01  0.63358574D-02 -0.12230612D-03
  0.90375492D-02 -0.12806127D-01  0.23654186D-01  0.51079720D-02 -0.48003220D-02
  0.99156739D-02  0.87182406D-03  0.30557144D-03  0.33497059D-03 -0.58048814D-02
  0.19451347D-02  0.38597468D-02 -0.40028106D-02  0.24875297D-02 -0.17155916D-01
 -0.81065247D-04 -0.16234907D-03  0.24341432D-03 -0.52261042D-03  0.29007818D-03
 -0.59141824D-03
MO    4     MO 0.0        OCC NO =    2.0000000  ORB. ENERGY =    0.000000
  0.49768734D+00  0.92760737D+00  0.15728887D+01  0.23803997D+01  0.29693610D+01
  0.25481535D+01  0.97580743D+00  0.49571774D-03  0.53187260D-02  0.19605826D-01
  0.57326284D-01  0.69080960D-01 -0.83215337D-01  0.78867885D-02 -0.19551950D-01
 -0.96597914D-03 -0.25023242D+00 -0.24264127D+00 -0.16368437D+00  0.18217862D+00
  0.17665198D+00  0.11916838D+00  0.53171845D-01  0.51558803D-01  0.34781264D-01
 -0.56673735D-01  0.39319513D-01  0.14146974D-01 -0.93788467D-02  0.44433223D-02
  0.61843564D-03 -0.30536501D-03  0.60302502D-04  0.40163812D-05  0.47706799D-02
 -0.28291605D-02 -0.19415194D-02 -0.39492904D-03  0.10281765D-01 -0.17112672D-01
  0.19550376D-02 -0.12321344D-02 -0.72290323D-03 -0.13078238D-03  0.28509965D-02
 -0.31885170D-02  0.35333808D-04 -0.15508165D-05 -0.33782991D-04  0.92074311D-05
  0.19492684D-03 -0.44666362D-04  0.14776511D-02  0.85744772D-03 -0.16479908D-03
 -0.28564733D-02 -0.26687724D-02 -0.11320860D-02 -0.15764799D-02  0.96429248D-04
  0.16264832D-02 -0.53750210D-05  0.76553394D-04 -0.25938047D-05 -0.35059659D-04
 -0.11163052D-03 -0.16822746D-03 -0.37812369D-03 -0.11802966D-03  0.17600888D-03
  0.48330267D-03 -0.27020826D-04 -0.10422230D-01 -0.18796921D-01 -0.27716049D-01
 -0.13513010D-01 -0.63272616D-03  0.39612912D-04 -0.32471199D-02 -0.78111818D-02
 -0.75813667D-02 -0.17623179D-02 -0.16735416D-02 -0.21863277D-02 -0.27763707D-03
  0.12491643D-03  0.35805748D-05  0.20782534D-02 -0.12249957D-02 -0.85325773D-03
 -0.15881467D-02 -0.12575082D-02 -0.61822845D-02  0.14353230D-04  0.31002572D-04
 -0.45355802D-04 -0.15907370D-03 -0.10411409D-03 -0.87480875D-04 -0.18609224D-02
 -0.33562502D-02 -0.49487889D-02  0.14544911D-02  0.11160345D-02 -0.94637608D-06
 -0.32905580D-02  0.49127926D-02 -0.17104973D-02 -0.18932163D-02  0.81830546D-03
  0.73177958D-04 -0.29553711D-03  0.26369581D-04  0.19768215D-04  0.10453747D-02
 -0.13051370D-02  0.25976222D-03  0.14940336D-02 -0.11465260D-02  0.27960975D-02
  0.27067619D-05 -0.30809878D-04  0.28103116D-04  0.18282274D-03 -0.11779464D-03
 -0.54700841D-04
MO    5     MO 0.0        OCC NO =    2.0000000  ORB. ENERGY =    0.000000
  0.16504260D-03  0.30761227D-03  0.52159983D-03  0.78938587D-03  0.98469666D-03
  0.84501623D-03  0.32359632D-03 -0.16383927D-02 -0.17578879D-01 -0.64799057D-01
 -0.18946864D+00 -0.22831893D+00  0.27503434D+00  0.16941402D+00  0.98606073D-01
  0.84913627D-02 -0.24661991D+00 -0.23913836D+00 -0.16132132D+00  0.18937094D+00
  0.18362611D+00  0.12387309D+00  0.56700349D+00  0.54980266D+00  0.37089362D+00
 -0.55457553D-01  0.39388894D-01  0.11915931D+00 -0.92153388D-02  0.38714260D-02
  0.18432066D-01 -0.28977851D-03  0.48189467D-04  0.33383453D-03 -0.52155182D-02
  0.19580631D-01 -0.14365113D-01  0.18949536D-02  0.94663628D-02 -0.17692517D-01
 -0.34192407D-02  0.69020425D-02 -0.34828018D-02  0.73568934D-03  0.24220380D-02
 -0.17230370D-02 -0.28827477D-03  0.46458834D-03 -0.17631357D-03  0.55952074D-04
  0.16680705D-03  0.10556897D-03  0.13348946D-02  0.10807079D-02  0.26409575D-02
 -0.22109225D-02 -0.22706187D-02 -0.89424165D-03 -0.17937614D-02 -0.97150513D-03
 -0.70286308D-02 -0.49665830D-03  0.55192548D-04  0.16369288D-04 -0.51400015D-06
 -0.84238247D-04 -0.60320870D-04  0.73888084D-04 -0.81339395D-04  0.11213007D-04
 -0.72346084D-04 -0.68040296D-04  0.18862257D-02  0.34018858D-02  0.50160786D-02
 -0.18076555D-01 -0.77566082D-02 -0.11444400D-03 -0.32590638D-02  0.56926502D-02
  0.11658382D-01 -0.18122813D-02 -0.45952363D-02  0.80900986D-03 -0.28071497D-03
 -0.48894789D-03  0.22873761D-03  0.47874389D-03 -0.19893057D-02  0.15105618D-02
 -0.16326901D-02 -0.12451588D-02  0.79860523D-04  0.15304757D-03 -0.20066995D-03
  0.47622379D-04 -0.16698561D-03 -0.91481324D-04 -0.12638450D-03  0.12525800D-01
  0.22590796D-01  0.33310116D-01 -0.18806095D-03 -0.55309613D-02 -0.14921673D-03
 -0.43879816D-02 -0.11750178D-01  0.19475559D-01 -0.17980662D-02  0.27976880D-02
  0.38968414D-02 -0.26093536D-03  0.55860295D-03  0.31140131D-03 -0.13255879D-02
 -0.11506652D-02  0.24762530D-02  0.18634130D-02 -0.17031033D-02 -0.61266154D-02
  0.12713601D-03 -0.22873307D-03  0.10159706D-03  0.14383204D-03 -0.10309031D-03
 -0.68592925D-04
END DATA
 TOTAL ENERGY =    -76.465284925993 THE VIRIAL(-V/T)=   2.00665726
