 65
GAUSSIAN              5 MOL ORBITALS    126 PRIMITIVES        3 NUCLEI   B3LYP   B3LYP   B3LYP
  O    1    (CENTRE  1)   0.00000000  0.00000000  0.00815606  CHARGE =  8.0
  H    2    (CENTRE  2)   0.00000000 -1.44255835 -1.00281530  CHARGE =  1.0
  H    3    (CENTRE  3)  -0.09448631  1.44255835 -1.09730160  CHARGE =  1.0
CENTRE ASSIGNMENTS    1  1  1  1  1  1  1  1  1  1  1  1  1  1  1  1  1  1  1  1
CENTRE ASSIGNMENTS    1  1  1  1  1  1  1  1  1  1  1  1  1  1  1  1  1  1  1  1
CENTRE ASSIGNMENTS    1  1  1  1  1  1  1  1  1  1  1  1  1  1  1  1  1  1  1  1
CENTRE ASSIGNMENTS    1  1  1  1  1  1  1  1  1  1  1  1  2  2  2  2  2  2  2  2
CENTRE ASSIGNMENTS    2  2  2  2  2  2  2  2  2  2  2  2  2  2  2  2  2  2  2  3
CENTRE ASSIGNMENTS    3  3  3  3  3  3  3  3  3  3  3  3  3  3  3  3  3  3  3  3
CENTRE ASSIGNMENTS    3  3  3  3  3  3
TYPE ASSIGNMENTS      1  1  1  1  1  1  1  1  1  1  1  1  1  1  1  1  2  2  2  3
TYPE ASSIGNMENTS      3  3  4  4  4  2  3  4  2  3  4  2  3  4  5  6  7  8  9 10
TYPE ASSIGNMENTS      5  6  7  8  9 10  5  6  7  8  9 10 11 12 13 17 14 15 18 19
TYPE ASSIGNMENTS     16 20 11 12 13 17 14 15 18 19 16 20  1  1  1  1  1  1  2  3
TYPE ASSIGNMENTS      4  2  3  4  2  3  4  5  6  7  8  9 10  5  6  7  8  9 10  1
TYPE ASSIGNMENTS      1  1  1  1  1  2  3  4  2  3  4  2  3  4  5  6  7  8  9 10
TYPE ASSIGNMENTS      5  6  7  8  9 10
EXPONENTS  0.1533000D+05 0.2299000D+04 0.5224000D+03 0.1473000D+03 0.4755000D+02
EXPONENTS  0.1676000D+02 0.6207000D+01 0.5224000D+03 0.1473000D+03 0.4755000D+02
EXPONENTS  0.1676000D+02 0.6207000D+01 0.6882000D+00 0.1752000D+01 0.2384000D+00
EXPONENTS  0.7376000D-01 0.3446000D+02 0.7749000D+01 0.2280000D+01 0.3446000D+02
EXPONENTS  0.7749000D+01 0.2280000D+01 0.3446000D+02 0.7749000D+01 0.2280000D+01
EXPONENTS  0.7156000D+00 0.7156000D+00 0.7156000D+00 0.2140000D+00 0.2140000D+00
EXPONENTS  0.2140000D+00 0.5974000D-01 0.5974000D-01 0.5974000D-01 0.2314000D+01
EXPONENTS  0.2314000D+01 0.2314000D+01 0.2314000D+01 0.2314000D+01 0.2314000D+01
EXPONENTS  0.6450000D+00 0.6450000D+00 0.6450000D+00 0.6450000D+00 0.6450000D+00
EXPONENTS  0.6450000D+00 0.2140000D+00 0.2140000D+00 0.2140000D+00 0.2140000D+00
EXPONENTS  0.2140000D+00 0.2140000D+00 0.1428000D+01 0.1428000D+01 0.1428000D+01
EXPONENTS  0.1428000D+01 0.1428000D+01 0.1428000D+01 0.1428000D+01 0.1428000D+01
EXPONENTS  0.1428000D+01 0.1428000D+01 0.5000000D+00 0.5000000D+00 0.5000000D+00
EXPONENTS  0.5000000D+00 0.5000000D+00 0.5000000D+00 0.5000000D+00 0.5000000D+00
EXPONENTS  0.5000000D+00 0.5000000D+00 0.3387000D+02 0.5095000D+01 0.1159000D+01
EXPONENTS  0.3258000D+00 0.1027000D+00 0.2526000D-01 0.1407000D+01 0.1407000D+01
EXPONENTS  0.1407000D+01 0.3880000D+00 0.3880000D+00 0.3880000D+00 0.1020000D+00
EXPONENTS  0.1020000D+00 0.1020000D+00 0.1057000D+01 0.1057000D+01 0.1057000D+01
EXPONENTS  0.1057000D+01 0.1057000D+01 0.1057000D+01 0.2470000D+00 0.2470000D+00
EXPONENTS  0.2470000D+00 0.2470000D+00 0.2470000D+00 0.2470000D+00 0.3387000D+02
EXPONENTS  0.5095000D+01 0.1159000D+01 0.3258000D+00 0.1027000D+00 0.2526000D-01
EXPONENTS  0.1407000D+01 0.1407000D+01 0.1407000D+01 0.3880000D+00 0.3880000D+00
EXPONENTS  0.3880000D+00 0.1020000D+00 0.1020000D+00 0.1020000D+00 0.1057000D+01
EXPONENTS  0.1057000D+01 0.1057000D+01 0.1057000D+01 0.1057000D+01 0.1057000D+01
EXPONENTS  0.2470000D+00 0.2470000D+00 0.2470000D+00 0.2470000D+00 0.2470000D+00
EXPONENTS  0.2470000D+00
MO    1     MO 0.0        OCC NO =    2.0000000  ORB. ENERGY =    0.000000
  0.13040066D-01  0.24304539D-01  0.41211761D-01  0.62369618D-01  0.77801183D-01
  0.66764990D-01  0.25567444D-01  0.75084578D-04  0.80560825D-03  0.29696237D-02
  0.86830055D-02  0.10463444D-01 -0.12604327D-01 -0.62065273D-02  0.49493003D-01
  0.88387227D-02  0.14215517D+00  0.13784270D+00  0.92987871D-01  0.20553139D+00
  0.19929632D+00  0.13444412D+00  0.15638922D+01  0.15164493D+01  0.10229878D+01
  0.31651630D-01  0.40137775D-01  0.33884776D+00  0.46278317D-02  0.27104082D-02
  0.40492728D-01  0.12787270D-03  0.29931736D-04  0.81737142D-03  0.44085730D-01
 -0.39651980D-02 -0.40120532D-01  0.19632801D-02 -0.10178675D-01 -0.19524388D-01
  0.56461398D-02  0.62463060D-02 -0.11892446D-01 -0.10129703D-03 -0.23393781D-02
 -0.13890875D-02 -0.93115004D-03  0.15646187D-02 -0.63346870D-03 -0.13136206D-03
 -0.39497255D-04  0.46910035D-03 -0.12472082D-02  0.10022559D-02  0.94232187D-03
  0.15399187D-02 -0.16619298D-02 -0.18271580D-01  0.22017060D-02 -0.13448378D-02
  0.15444615D-01 -0.21226324D-02 -0.15164880D-04  0.65152442D-04  0.66400461D-03
 -0.75415455D-04  0.58541206D-04 -0.93338666D-05  0.12091010D-03 -0.25399853D-03
 -0.19826800D-02  0.75779562D-04 -0.34364341D-01 -0.61977504D-01 -0.91385794D-01
 -0.67900053D-01 -0.94716808D-02 -0.91187708D-04  0.20536753D-02 -0.34068661D-01
 -0.40785952D-02  0.10753631D-02 -0.14308873D-01 -0.19528782D-03  0.15144421D-03
 -0.87429030D-04  0.11702960D-02  0.52785790D-02 -0.92346670D-02  0.39560880D-02
  0.10053300D-02  0.63324726D-03 -0.11092518D-01  0.21105611D-04 -0.17308678D-03
  0.15198117D-03  0.10968999D-03  0.25392025D-04  0.75490534D-03 -0.25082933D-01
 -0.45238103D-01 -0.66703557D-01 -0.49271892D-01 -0.79732324D-02 -0.12136069D-03
  0.37015025D-03  0.25498148D-01  0.18105541D-02  0.28650372D-03  0.11867377D-01
  0.14522272D-02  0.13301206D-03  0.27089012D-03  0.11144416D-02  0.31713207D-02
 -0.70395798D-02  0.38682591D-02  0.36035521D-03  0.28230175D-03  0.58215180D-02
  0.14209152D-03 -0.29474559D-03  0.15265406D-03 -0.54839144D-04  0.54373794D-04
 -0.55602322D-03
MO    2     MO 0.0        OCC NO =    2.0000000  ORB. ENERGY =    0.000000
 -0.70484532D-02 -0.13137158D-01 -0.22275897D-01 -0.33712202D-01 -0.42053315D-01
 -0.36088000D-01 -0.13819787D-01 -0.51312372D-04 -0.55054808D-03 -0.20294239D-02
 -0.59339164D-02 -0.71506578D-02  0.86137251D-02  0.38693779D-02 -0.92615189D-04
 -0.60905922D-03  0.12418995D+00  0.12042247D+00  0.81236288D-01  0.14572608D+01
  0.14130528D+01  0.95323704D+00 -0.20216869D+00 -0.19603562D+00 -0.13224447D+00
  0.29005925D-01  0.29774990D+00 -0.45711767D-01  0.55036206D-02  0.25974305D-01
 -0.62348710D-02  0.19697089D-03  0.23091978D-03 -0.12084319D-03 -0.47818031D-02
 -0.33390557D-02  0.81208588D-02 -0.65286883D-02 -0.20056520D-02 -0.13455710D+00
 -0.12238210D-02 -0.49050953D-03  0.17143306D-02 -0.76064234D-03 -0.10893503D-02
 -0.15776779D-01 -0.58130981D-04 -0.13349286D-05  0.59465910D-04  0.73402518D-04
 -0.15445935D-03  0.15165296D-02 -0.50804444D-03  0.71277140D-02  0.15935750D-03
  0.65488972D-03 -0.14200719D-01  0.28617141D-02  0.86924362D-03 -0.71824227D-02
 -0.33397867D-02  0.97090267D-03  0.39470870D-06  0.12551517D-03 -0.18933843D-05
 -0.26249941D-04 -0.67004361D-03  0.19320468D-03  0.25065815D-04  0.29349810D-03
 -0.18752453D-03  0.65046430D-04 -0.34791000D-01 -0.62747001D-01 -0.92520417D-01
 -0.66139544D-01 -0.74219708D-02  0.11025316D-03  0.20321158D-02 -0.21557107D-01
 -0.29078744D-01  0.11678984D-02 -0.73831150D-02 -0.11365916D-01  0.19647102D-03
  0.27214992D-03 -0.31111501D-03  0.72011236D-02 -0.42767023D-02 -0.29244213D-02
  0.10854031D-02  0.69864967D-03 -0.21892939D-01 -0.58292811D-04  0.23614830D-03
 -0.17785549D-03  0.10520199D-03  0.89019966D-04 -0.46850964D-03  0.41214399D-01
  0.74331866D-01  0.10960229D+00  0.76251227D-01  0.94167649D-02 -0.95342964D-04
  0.45014097D-02 -0.25258786D-01  0.27847279D-01  0.21354772D-02 -0.94845176D-02
  0.11043022D-01  0.20752861D-03  0.14935776D-03  0.85161760D-04 -0.76555776D-02
  0.48938921D-02  0.27616855D-02 -0.30220062D-02  0.25588737D-02 -0.22585125D-01
 -0.51339437D-04 -0.10132673D-03  0.15266616D-03 -0.15323386D-03  0.11824431D-03
 -0.58101866D-03
MO    3     MO 0.0        OCC NO =    2.0000000  ORB. ENERGY =    0.000000
 -0.10861696D-01 -0.20244415D-01 -0.34327250D-01 -0.51950642D-01 -0.64804332D-01
 -0.55611758D-01 -0.21296349D-01  0.21235301D-03  0.22784084D-02  0.83986425D-02
  0.24557138D-01  0.29592545D-01 -0.35647357D-01 -0.23133858D-01 -0.13737540D-01
 -0.12446784D-02  0.17613639D+01  0.17079305D+01  0.11521598D+01 -0.95571768D-01
 -0.92672467D-01 -0.62516299D-01 -0.17097999D+00 -0.16579307D+00 -0.11184303D+00
  0.39755218D+00 -0.18393352D-01 -0.37243269D-01  0.64893407D-01 -0.66981325D-03
 -0.57835461D-02  0.20619574D-02  0.40680361D-04 -0.14997170D-03 -0.28728186D-02
 -0.26366228D-02  0.55094414D-02 -0.36155880D-02 -0.72584133D-01  0.11862796D-01
 -0.43913335D-03 -0.98507982D-03  0.14242132D-02  0.24570315D-05 -0.18120112D-01
  0.11795199D-02  0.51352107D-05 -0.90519061D-04  0.85383850D-04  0.87623211D-04
 -0.11444678D-02 -0.19692275D-03 -0.10556809D-01  0.18662090D-04 -0.76932163D-03
  0.23309190D-01 -0.10141093D-02  0.24664472D-02  0.83612355D-02  0.95812298D-03
 -0.15848229D-03 -0.20288195D-03 -0.28637486D-03 -0.59969803D-05 -0.15782624D-04
  0.35540528D-03  0.93562426D-05  0.90404657D-04  0.50371929D-03  0.86346983D-05
 -0.43056783D-04 -0.44171065D-03  0.30798176D-02  0.55545778D-02  0.81902217D-02
  0.91697391D-02  0.17889198D-02  0.78475343D-05  0.26135688D-01  0.23955133D-02
 -0.42446078D-03  0.14209323D-01  0.20133757D-02  0.10089871D-03  0.21518970D-02
  0.10914960D-03 -0.14108793D-03 -0.78360333D-03  0.12859743D-02 -0.50237102D-03
  0.13222278D-01  0.90427618D-02  0.15654034D-02 -0.21429947D-04  0.57464148D-04
 -0.36034201D-04  0.14223628D-02  0.83828657D-03 -0.13456340D-04 -0.45662676D-02
 -0.82354516D-02 -0.12143169D-01 -0.54061459D-02  0.88526025D-04  0.29141317D-04
  0.23984482D-01  0.38349180D-02 -0.60266397D-02  0.13182268D-01  0.56990785D-03
 -0.20892405D-02  0.20515289D-02 -0.29052340D-04 -0.16951538D-03  0.15109126D-02
 -0.43473902D-03 -0.10761736D-02 -0.11821522D-01  0.87138859D-02  0.33543673D-02
  0.57820644D-04  0.11122505D-04 -0.68943149D-04 -0.12775814D-02  0.79095604D-03
  0.15454669D-03
MO    4     MO 0.0        OCC NO =    2.0000000  ORB. ENERGY =    0.000000
  0.46928173D+00  0.87466398D+00  0.14831157D+01  0.22445379D+01  0.27998841D+01
  0.24027171D+01  0.92011301D+00  0.10239784D-02  0.10986616D-01  0.40498735D-01
  0.11841593D+00  0.14269695D+00 -0.17189360D+00 -0.50446019D-01 -0.52670523D-01
 -0.41234725D-02 -0.65196315D-01 -0.63218494D-01 -0.42646823D-01  0.25373114D-01
  0.24603385D-01  0.16597298D-01 -0.22353327D+00 -0.21675208D+00 -0.14621967D+00
 -0.14473064D-01  0.36972667D-02 -0.46424220D-01 -0.23839565D-02 -0.21596966D-03
 -0.85919328D-02 -0.71027055D-04 -0.12372832D-04 -0.17082727D-03  0.46286752D-02
 -0.11013915D-01  0.63852396D-02  0.10317074D-02  0.24561191D-02 -0.16749307D-02
  0.23183662D-02 -0.37203140D-02  0.14019478D-02  0.41674527D-03  0.45476929D-03
  0.80035696D-03  0.95692127D-04 -0.16672138D-03  0.71029250D-04  0.20202567D-04
  0.28828353D-04  0.14724099D-03  0.34028023D-03  0.13083616D-03 -0.84526175D-03
 -0.62040319D-03  0.30550447D-03  0.45155891D-03 -0.40043749D-03 -0.69801295D-03
  0.20842263D-02 -0.17560979D-03 -0.31329628D-05  0.88219716D-05 -0.78972174D-05
  0.26664463D-05  0.42186404D-04 -0.23869325D-03  0.67324422D-05 -0.68652319D-04
  0.26238490D-03 -0.27602525D-04 -0.87975868D-02 -0.15866810D-01 -0.23395602D-01
 -0.35877761D-02  0.24527685D-02  0.61615356D-04 -0.99286356D-03 -0.10823656D-01
 -0.11719286D-01 -0.55394552D-03 -0.27781170D-03 -0.27531568D-02 -0.81692577D-04
  0.20349566D-03 -0.19517056D-03  0.22675771D-02 -0.12718002D-02 -0.99577685D-03
 -0.52572178D-03 -0.33398372D-03 -0.75669420D-02 -0.62692877D-04  0.11076295D-03
 -0.48070074D-04 -0.57078863D-04 -0.22985647D-04 -0.49742755D-04 -0.65069438D-02
 -0.11735541D-01 -0.17304048D-01  0.92789509D-03  0.31718917D-02  0.69636561D-04
 -0.14189784D-02  0.77240887D-02 -0.95465703D-02 -0.46048378D-03 -0.90610790D-03
 -0.17746034D-02 -0.60740926D-04 -0.28020028D-03 -0.13625818D-03  0.13507447D-02
 -0.22525906D-03 -0.11254856D-02  0.69137090D-03 -0.65488653D-03  0.49116323D-02
 -0.74655501D-04  0.13311764D-03 -0.58462141D-04  0.26164182D-04 -0.23039376D-04
 -0.11271201D-04
MO    5     MO 0.0        OCC NO =    2.0000000  ORB. ENERGY =    0.000000
  0.19669917D+00  0.36661491D+00  0.62164710D+00  0.94079678D+00  0.11735698D+01
  0.10070975D+01  0.38566484D+00 -0.13827757D-02 -0.14836276D-01 -0.54689306D-01
 -0.15990832D+00 -0.19269730D+00  0.23212432D+00  0.16585659D+00  0.76628126D-01
  0.60667880D-02  0.24109890D+00  0.23378484D+00  0.15770987D+00 -0.27997845D-01
 -0.27148492D-01 -0.18314212D-01  0.26155864D+00  0.25362390D+00  0.17109318D+00
  0.54172501D-01 -0.48023560D-02  0.54494414D-01  0.88949662D-02  0.68291370D-04
  0.10489277D-01  0.27645453D-03  0.74329806D-05  0.19737174D-03 -0.12820538D-01
  0.20655093D-01 -0.78345558D-02 -0.24776692D-02 -0.91003055D-02  0.34376276D-02
 -0.34510294D-02  0.49241588D-02 -0.14731294D-02 -0.56169959D-03 -0.21659095D-02
 -0.57966189D-03 -0.81040353D-04  0.14283776D-03 -0.61797411D-04 -0.76631030D-05
 -0.14431508D-03 -0.12054750D-03 -0.12740265D-02 -0.26553267D-03  0.22608731D-02
  0.26388847D-02  0.70790263D-04  0.25031509D-02  0.11831948D-02  0.72580775D-03
 -0.92857703D-02  0.72964555D-03 -0.40019446D-04  0.16374428D-04 -0.28678963D-03
  0.82139542D-04 -0.10864526D-03 -0.13043264D-03  0.37918797D-04  0.59521975D-04
  0.99080155D-03 -0.11367394D-03  0.13169939D-01  0.23752528D-01  0.35023089D-01
  0.34698628D-02 -0.41757467D-02 -0.10057071D-03  0.36407328D-02  0.14037822D-01
  0.15354253D-01  0.20000742D-02 -0.13746215D-02  0.24769164D-02  0.29904125D-03
 -0.44598609D-03  0.11981235D-03 -0.94320719D-03 -0.41390777D-03  0.13571150D-02
  0.18913221D-02  0.12346201D-02  0.46022172D-02  0.13228775D-03 -0.18977242D-03
  0.57484674D-04  0.20053960D-03  0.10498734D-03 -0.98508672D-04  0.10134404D-01
  0.18277814D-01  0.26950626D-01 -0.72687316D-03 -0.45401993D-02 -0.92295013D-04
  0.40823066D-02 -0.10760612D-01  0.13246278D-01  0.17404421D-02  0.20172391D-02
  0.18653947D-02  0.25653780D-03  0.45252022D-03  0.97211106D-04 -0.28344446D-03
 -0.10901282D-02  0.13735726D-02 -0.16303434D-02  0.14007000D-02 -0.25851690D-02
  0.12789371D-03 -0.18982296D-03  0.61929248D-04 -0.14220017D-03  0.95334786D-04
  0.10106833D-03
END DATA
 TOTAL ENERGY =    -76.465228348230 THE VIRIAL(-V/T)=   2.00526270
