 65
GAUSSIAN              5 MOL ORBITALS    126 PRIMITIVES        3 NUCLEI   B3LYP   B3LYP   B3LYP
  O    1    (CENTRE  1)   0.00000000  0.00000000  0.00815606  CHARGE =  8.0
  H    2    (CENTRE  2)   0.00000000 -1.44255835 -1.19178791  CHARGE =  1.0
  H    3    (CENTRE  3)  -0.09448631  1.44255835 -1.09730160  CHARGE =  1.0
CENTRE ASSIGNMENTS    1  1  1  1  1  1  1  1  1  1  1  1  1  1  1  1  1  1  1  1
CENTRE ASSIGNMENTS    1  1  1  1  1  1  1  1  1  1  1  1  1  1  1  1  1  1  1  1
CENTRE ASSIGNMENTS    1  1  1  1  1  1  1  1  1  1  1  1  1  1  1  1  1  1  1  1
CENTRE ASSIGNMENTS    1  1  1  1  1  1  1  1  1  1  1  1  2  2  2  2  2  2  2  2
CENTRE ASSIGNMENTS    2  2  2  2  2  2  2  2  2  2  2  2  2  2  2  2  2  2  2  3
CENTRE ASSIGNMENTS    3  3  3  3  3  3  3  3  3  3  3  3  3  3  3  3  3  3  3  3
CENTRE ASSIGNMENTS    3  3  3  3  3  3
TYPE ASSIGNMENTS      1  1  1  1  1  1  1  1  1  1  1  1  1  1  1  1  2  2  2  3
TYPE ASSIGNMENTS      3  3  4  4  4  2  3  4  2  3  4  2  3  4  5  6  7  8  9 10
TYPE ASSIGNMENTS      5  6  7  8  9 10  5  6  7  8  9 10 11 12 13 17 14 15 18 19
TYPE ASSIGNMENTS     16 20 11 12 13 17 14 15 18 19 16 20  1  1  1  1  1  1  2  3
TYPE ASSIGNMENTS      4  2  3  4  2  3  4  5  6  7  8  9 10  5  6  7  8  9 10  1
TYPE ASSIGNMENTS      1  1  1  1  1  2  3  4  2  3  4  2  3  4  5  6  7  8  9 10
TYPE ASSIGNMENTS      5  6  7  8  9 10
EXPONENTS  0.1533000D+05 0.2299000D+04 0.5224000D+03 0.1473000D+03 0.4755000D+02
EXPONENTS  0.1676000D+02 0.6207000D+01 0.5224000D+03 0.1473000D+03 0.4755000D+02
EXPONENTS  0.1676000D+02 0.6207000D+01 0.6882000D+00 0.1752000D+01 0.2384000D+00
EXPONENTS  0.7376000D-01 0.3446000D+02 0.7749000D+01 0.2280000D+01 0.3446000D+02
EXPONENTS  0.7749000D+01 0.2280000D+01 0.3446000D+02 0.7749000D+01 0.2280000D+01
EXPONENTS  0.7156000D+00 0.7156000D+00 0.7156000D+00 0.2140000D+00 0.2140000D+00
EXPONENTS  0.2140000D+00 0.5974000D-01 0.5974000D-01 0.5974000D-01 0.2314000D+01
EXPONENTS  0.2314000D+01 0.2314000D+01 0.2314000D+01 0.2314000D+01 0.2314000D+01
EXPONENTS  0.6450000D+00 0.6450000D+00 0.6450000D+00 0.6450000D+00 0.6450000D+00
EXPONENTS  0.6450000D+00 0.2140000D+00 0.2140000D+00 0.2140000D+00 0.2140000D+00
EXPONENTS  0.2140000D+00 0.2140000D+00 0.1428000D+01 0.1428000D+01 0.1428000D+01
EXPONENTS  0.1428000D+01 0.1428000D+01 0.1428000D+01 0.1428000D+01 0.1428000D+01
EXPONENTS  0.1428000D+01 0.1428000D+01 0.5000000D+00 0.5000000D+00 0.5000000D+00
EXPONENTS  0.5000000D+00 0.5000000D+00 0.5000000D+00 0.5000000D+00 0.5000000D+00
EXPONENTS  0.5000000D+00 0.5000000D+00 0.3387000D+02 0.5095000D+01 0.1159000D+01
EXPONENTS  0.3258000D+00 0.1027000D+00 0.2526000D-01 0.1407000D+01 0.1407000D+01
EXPONENTS  0.1407000D+01 0.3880000D+00 0.3880000D+00 0.3880000D+00 0.1020000D+00
EXPONENTS  0.1020000D+00 0.1020000D+00 0.1057000D+01 0.1057000D+01 0.1057000D+01
EXPONENTS  0.1057000D+01 0.1057000D+01 0.1057000D+01 0.2470000D+00 0.2470000D+00
EXPONENTS  0.2470000D+00 0.2470000D+00 0.2470000D+00 0.2470000D+00 0.3387000D+02
EXPONENTS  0.5095000D+01 0.1159000D+01 0.3258000D+00 0.1027000D+00 0.2526000D-01
EXPONENTS  0.1407000D+01 0.1407000D+01 0.1407000D+01 0.3880000D+00 0.3880000D+00
EXPONENTS  0.3880000D+00 0.1020000D+00 0.1020000D+00 0.1020000D+00 0.1057000D+01
EXPONENTS  0.1057000D+01 0.1057000D+01 0.1057000D+01 0.1057000D+01 0.1057000D+01
EXPONENTS  0.2470000D+00 0.2470000D+00 0.2470000D+00 0.2470000D+00 0.2470000D+00
EXPONENTS  0.2470000D+00
MO    1     MO 0.0        OCC NO =    2.0000000  ORB. ENERGY =    0.000000
  0.57222474D-01  0.10665328D+00  0.18084563D+00  0.27369063D+00  0.34140748D+00
  0.29297841D+00  0.11219517D+00 -0.34256619D-03 -0.36755104D-02 -0.13548623D-01
 -0.39615380D-01 -0.47738459D-01  0.57506033D-01  0.41544595D-01 -0.29474403D-01
 -0.72293125D-02 -0.34867377D-01 -0.33809627D-01 -0.22807775D-01  0.39461512D+00
  0.38264393D+00  0.25812933D+00 -0.14036316D+01 -0.13610505D+01 -0.91815664D+00
 -0.71219321D-02  0.80931032D-01 -0.30548949D+00 -0.37827161D-03  0.73892630D-02
 -0.36023960D-01  0.12544653D-04  0.85598328D-04 -0.68756814D-03 -0.43906226D-01
  0.61570600D-02  0.37749166D-01 -0.48948729D-02  0.65351431D-02 -0.37729438D-01
 -0.66234729D-02 -0.47091521D-02  0.11332625D-01 -0.31334869D-03  0.12408586D-02
 -0.45475181D-02  0.66929950D-03 -0.12360411D-02  0.56674161D-03  0.14417416D-03
 -0.48648586D-04  0.37693940D-03  0.66723487D-03  0.17595980D-02 -0.12624330D-02
 -0.60215687D-03 -0.37308669D-02  0.18291735D-01 -0.13995477D-02 -0.15479270D-02
 -0.14504436D-01  0.24296394D-02  0.94995654D-05  0.62581549D-04 -0.71285182D-03
  0.72424602D-04 -0.13931685D-03  0.34698328D-03 -0.10092330D-03 -0.48427797D-04
  0.17915722D-02 -0.82875784D-04  0.20993613D-01  0.37862845D-01  0.55828743D-01
  0.37596483D-01  0.61174388D-02  0.12611319D-03 -0.34427479D-03  0.22440466D-01
 -0.11422121D-02 -0.14431352D-03  0.10051446D-01 -0.13775015D-02 -0.76616212D-05
  0.33260092D-03 -0.88588722D-03 -0.22372991D-02  0.55717741D-02 -0.33344750D-02
 -0.13367130D-03 -0.47932492D-04  0.41315322D-02 -0.15659143D-03  0.29538933D-03
 -0.13879790D-03 -0.20354440D-04  0.27148122D-04 -0.30896898D-03  0.40133718D-01
  0.72382813D-01  0.10672842D+00  0.73199808D-01  0.98172427D-02  0.53168534D-04
  0.21700795D-02 -0.34600865D-01  0.11939817D-01  0.88682029D-03 -0.13929873D-01
  0.34069667D-02  0.79420393D-05 -0.55085875D-04 -0.87811023D-03 -0.59234009D-02
  0.78638783D-02 -0.19404774D-02 -0.17899473D-02  0.10111882D-02 -0.14537229D-01
 -0.11212842D-03  0.17183291D-03 -0.59704490D-04 -0.34845398D-04  0.11669454D-04
  0.25827469D-03
MO    2     MO 0.0        OCC NO =    2.0000000  ORB. ENERGY =    0.000000
 -0.31893863D+00 -0.59444917D+00 -0.10079721D+01 -0.15254586D+01 -0.19028894D+01
 -0.16329622D+01 -0.62533776D+00 -0.46201374D-04 -0.49571043D-03 -0.18272820D-02
 -0.53428653D-02 -0.64384125D-02  0.77557501D-02 -0.32465804D-01  0.28861424D-02
  0.69002150D-03  0.30162147D+00  0.29247136D+00  0.19729945D+00  0.10954390D+01
  0.10622074D+01  0.71655881D+00  0.15159591D+00  0.14699704D+00  0.99163335D-01
  0.68705549D-01  0.22950176D+00  0.33320785D-01  0.11831914D-01  0.23306499D-01
  0.45693093D-02  0.39643780D-03  0.25899340D-03  0.76987813D-04  0.42684718D-02
  0.16973493D-02 -0.59658211D-02 -0.32476115D-02 -0.10857375D-01 -0.10178858D+00
  0.53859498D-03  0.82077365D-03 -0.13593686D-02 -0.56644520D-03 -0.32378846D-02
 -0.14723781D-01 -0.25785842D-05  0.66768281D-04 -0.64189697D-04 -0.24731462D-05
 -0.26744952D-03  0.36993937D-03 -0.16849119D-02  0.49112484D-02 -0.28987123D-03
  0.28201587D-02 -0.11973509D-01 -0.24959438D-02  0.22345770D-02 -0.27602358D-02
  0.33655575D-02  0.31699204D-03 -0.58518839D-04  0.80856385D-04  0.97496205D-04
  0.58125972D-04 -0.80296825D-03  0.29284722D-04  0.11743054D-03  0.56039909D-03
 -0.32177334D-03  0.21201769D-03 -0.29754804D-01 -0.53664015D-01 -0.79127559D-01
 -0.54252920D-01 -0.72031534D-02  0.83519795D-04  0.40086808D-02 -0.14572919D-01
 -0.19417558D-01  0.22128254D-02 -0.56304945D-02 -0.80008007D-02  0.35922120D-03
  0.20161039D-03 -0.64324136D-04  0.46607693D-02 -0.17830981D-02 -0.28776712D-02
  0.20004890D-02  0.15271419D-02 -0.13518658D-01  0.13421064D-03  0.57103172D-04
 -0.19131381D-03  0.19709662D-03  0.13080741D-03 -0.54936437D-03  0.25254407D-01
  0.45547363D-01  0.67159560D-01  0.46458894D-01  0.53967975D-02 -0.10421232D-03
  0.59000227D-02 -0.12693285D-01  0.20738953D-01  0.30109966D-02 -0.45215681D-02
  0.84621562D-02  0.38716180D-03  0.27958811D-03  0.23956505D-03 -0.52506609D-02
  0.21929163D-02  0.30577446D-02 -0.34936155D-02  0.29502221D-02 -0.16284968D-01
 -0.32110952D-04 -0.15020171D-03  0.18231267D-03 -0.25034501D-03  0.18247028D-03
 -0.46461199D-03
MO    3     MO 0.0        OCC NO =    2.0000000  ORB. ENERGY =    0.000000
  0.38669678D+00  0.72073922D+00  0.12221146D+01  0.18495405D+01  0.23071560D+01
  0.19798831D+01  0.75819005D+00  0.44486767D-03  0.47731381D-02  0.17594686D-01
  0.51445830D-01  0.61994726D-01 -0.74679217D-01  0.40657966D-03 -0.11575172D-01
  0.40645705D-03 -0.39284536D-01 -0.38092785D-01 -0.25697168D-01  0.87661598D+00
  0.85002263D+00  0.57342024D+00  0.30935280D+00  0.29996816D+00  0.20235675D+00
 -0.84008511D-02  0.18479568D+00  0.70423634D-01 -0.11449616D-02  0.19068073D-01
  0.80607707D-02 -0.27778700D-04  0.21022036D-03  0.14785361D-03  0.11431952D-01
 -0.10901580D-02 -0.10341794D-01 -0.25837696D-02  0.19304123D-02 -0.82551392D-01
  0.30086616D-02 -0.10771654D-03 -0.29009451D-02 -0.31146228D-03  0.18623626D-03
 -0.12683668D-01 -0.65716325D-05  0.15138143D-03 -0.14480979D-03 -0.25837650D-05
 -0.95652006D-06  0.17901784D-03  0.27562597D-03  0.38586462D-02  0.44152589D-04
 -0.11474196D-02 -0.98623922D-02 -0.47159396D-02  0.32054171D-03 -0.17135464D-02
  0.45834818D-02  0.39077905D-04  0.93910864D-05  0.37753632D-04  0.69892945D-04
 -0.48107595D-04 -0.67515464D-03 -0.47444897D-03  0.19934335D-04  0.56189374D-03
  0.26477013D-03  0.46214948D-04 -0.32095164D-01 -0.57884951D-01 -0.85351326D-01
 -0.53731751D-01 -0.62606668D-02  0.82574401D-04 -0.43490530D-03 -0.19494070D-01
 -0.19854640D-01 -0.22994429D-03 -0.66129865D-02 -0.73044236D-02 -0.28634197D-04
  0.19453000D-03  0.59454638D-04  0.55624170D-02 -0.31790987D-02 -0.23833182D-02
 -0.20000828D-03 -0.21790297D-03 -0.15995655D-01  0.12554721D-03  0.26840160D-04
 -0.15238737D-03 -0.25223154D-04 -0.17213735D-04 -0.43376020D-03  0.12298580D-01
  0.22180995D-01  0.32705864D-01  0.26546957D-01  0.36783068D-02 -0.81804066D-04
  0.23804949D-03 -0.13236953D-02  0.12180886D-01  0.98904150D-04 -0.95941897D-03
  0.56816314D-02 -0.22332725D-04  0.23407233D-03  0.27681486D-03 -0.20577422D-02
 -0.59872998D-03  0.26564722D-02 -0.22565378D-03  0.50614397D-03 -0.67956884D-02
 -0.23247091D-04 -0.14623415D-03  0.16948124D-03  0.78194510D-05  0.19669969D-04
 -0.40130420D-03
MO    4     MO 0.0        OCC NO =    2.0000000  ORB. ENERGY =    0.000000
  0.67120355D-01  0.12510131D+00  0.21212684D+00  0.32103142D+00  0.40046139D+00
  0.34365546D+00  0.13160178D+00  0.27972011D-03  0.30012132D-02  0.11063037D-01
  0.32347672D-01  0.38980517D-01 -0.46956164D-01 -0.21052972D-01 -0.16139963D-01
 -0.14058249D-02  0.17402280D+01  0.16874358D+01  0.11383342D+01 -0.15759480D+00
 -0.15281394D+00 -0.10308738D+00 -0.17571244D+00 -0.17038196D+00 -0.11493867D+00
  0.39302712D+00 -0.31908359D-01 -0.38189574D-01  0.64949258D-01 -0.22996650D-02
 -0.61305796D-02  0.20981841D-02  0.23369617D-04 -0.14967085D-03 -0.25632044D-02
 -0.33525075D-02  0.59157120D-02  0.47449205D-02 -0.70583464D-01  0.17770432D-01
 -0.26239533D-03 -0.12008565D-02  0.14632519D-02  0.45177892D-03 -0.18702938D-01
  0.21203898D-02 -0.13237852D-04 -0.75496290D-04  0.88734142D-04 -0.68814888D-04
 -0.12941716D-02 -0.13052953D-03 -0.10317896D-01 -0.27734170D-03 -0.79261401D-03
  0.20973488D-01 -0.17903036D-03  0.25826459D-02  0.99801999D-02  0.10110554D-02
 -0.20480391D-03  0.58110180D-04 -0.45633195D-03  0.78474849D-05 -0.39494010D-04
  0.71076793D-03  0.64567529D-04  0.71559621D-04  0.65822791D-03 -0.88109983D-04
  0.46922409D-04  0.38466357D-03  0.44441935D-02  0.80152861D-02  0.11818535D-01
  0.11614335D-01  0.23964392D-02  0.31546299D-05  0.22498481D-01  0.20582327D-02
  0.41796188D-03  0.12257943D-01  0.20062486D-02  0.70051276D-03  0.19225043D-02
  0.10964432D-03 -0.99047438D-04 -0.83296226D-03  0.93638390D-03 -0.10342163D-03
  0.11035314D-01  0.88099685D-02  0.19955718D-02 -0.54389884D-04  0.59380036D-04
 -0.49901521D-05  0.11181808D-02  0.72729830D-03  0.94049706D-04 -0.67788564D-02
 -0.12225947D-01 -0.18027151D-01 -0.87156525D-02 -0.13736109D-03  0.41013551D-04
  0.23668120D-01  0.53552699D-02 -0.78538050D-02  0.12998871D-01  0.96887843D-03
 -0.26797725D-02  0.20207478D-02 -0.63507140D-04 -0.16893373D-03  0.20158216D-02
 -0.73790442D-03 -0.12779172D-02 -0.11735927D-01  0.85179803D-02  0.48361595D-02
  0.64497112D-04  0.15342117D-04 -0.79839229D-04 -0.12426663D-02  0.76227651D-03
  0.16904669D-03
MO    5     MO 0.0        OCC NO =    2.0000000  ORB. ENERGY =    0.000000
 -0.15709453D-01 -0.29279838D-01 -0.49648080D-01 -0.75137090D-01 -0.93727597D-01
 -0.80432223D-01 -0.30801268D-01 -0.16321987D-02 -0.17512421D-01 -0.64554083D-01
 -0.18875235D+00 -0.22745576D+00  0.27399457D+00  0.16690300D+00  0.10150022D+00
  0.90369998D-02  0.29946544D+00  0.29038074D+00  0.19588913D+00  0.89654849D-01
  0.86935045D-01  0.58645868D-01  0.65855891D+00  0.63858062D+00  0.43078271D+00
  0.67296641D-01  0.18612313D-01  0.13890499D+00  0.11087034D-01  0.18405358D-02
  0.20733761D-01  0.34749564D-03  0.26928425D-04  0.37718069D-03 -0.24581488D-02
  0.19108698D-01 -0.16650549D-01 -0.11797870D-02 -0.12059379D-01 -0.81933451D-02
 -0.30750160D-02  0.72674397D-02 -0.41924237D-02 -0.67452472D-03 -0.30464035D-02
 -0.39403647D-03 -0.34329782D-03  0.55472529D-03 -0.21142747D-03 -0.69669507D-04
 -0.19774021D-03  0.56124053D-04 -0.16884860D-02  0.65211056D-03  0.27346446D-02
  0.29074871D-02 -0.12716549D-02 -0.20016713D-02  0.21579711D-02 -0.68467676D-03
 -0.62022625D-02  0.29866594D-03 -0.69371408D-04  0.82788281D-05  0.49993997D-04
  0.10162913D-03  0.12653688D-05  0.71810447D-04  0.10648510D-03 -0.26101853D-04
 -0.22179244D-03  0.80331541D-04  0.25122392D-02  0.45309268D-02  0.66808489D-02
 -0.17122770D-01 -0.77649958D-02 -0.13070935D-03  0.39284181D-02  0.52357587D-02
  0.13177681D-01  0.21728035D-02 -0.49260197D-02  0.14594971D-02  0.33544327D-03
 -0.52822399D-03  0.29601201D-03  0.26967266D-03 -0.22245765D-02  0.19549039D-02
  0.19570522D-02  0.15033351D-02  0.86273308D-03  0.15591737D-03 -0.22593697D-03
  0.70019605D-04  0.20075789D-03  0.11012164D-03 -0.67490790D-04  0.80857377D-02
  0.14582961D-01  0.21502567D-01 -0.85058844D-02 -0.66335017D-02 -0.14694556D-03
  0.48280847D-02 -0.85757543D-02  0.17384289D-01  0.20669752D-02  0.40882332D-02
  0.31205069D-02  0.31644023D-03  0.54698185D-03  0.35980092D-03 -0.59626293D-03
 -0.18191036D-02  0.24153665D-02 -0.20069063D-02  0.18071789D-02 -0.42036021D-02
  0.14045982D-03 -0.23305022D-03  0.92590400D-04 -0.17495840D-03  0.12127075D-03
 -0.55732261D-04
END DATA
 TOTAL ENERGY =    -76.465284925993 THE VIRIAL(-V/T)=   2.00665726
