 66
GAUSSIAN              5 MOL ORBITALS    126 PRIMITIVES        3 NUCLEI   B3LYP   B3LYP   B3LYP
  O    1    (CENTRE  1)   0.00000000  0.00000000  0.00815606  CHARGE =  8.0
  H    2    (CENTRE  2)   0.00000000 -1.44255835 -1.09730160  CHARGE =  1.0
  H    3    (CENTRE  3)   0.09448631  1.44255835 -1.09730160  CHARGE =  1.0
CENTRE ASSIGNMENTS    1  1  1  1  1  1  1  1  1  1  1  1  1  1  1  1  1  1  1  1
CENTRE ASSIGNMENTS    1  1  1  1  1  1  1  1  1  1  1  1  1  1  1  1  1  1  1  1
CENTRE ASSIGNMENTS    1  1  1  1  1  1  1  1  1  1  1  1  1  1  1  1  1  1  1  1
CENTRE ASSIGNMENTS    1  1  1  1  1  1  1  1  1  1  1  1  2  2  2  2  2  2  2  2
CENTRE ASSIGNMENTS    2  2  2  2  2  2  2  2  2  2  2  2  2  2  2  2  2  2  2  3
CENTRE ASSIGNMENTS    3  3  3  3  3  3  3  3  3  3  3  3  3  3  3  3  3  3  3  3
CENTRE ASSIGNMENTS    3  3  3  3  3  3
TYPE ASSIGNMENTS      1  1  1  1  1  1  1  1  1  1  1  1  1  1  1  1  2  2  2  3
TYPE ASSIGNMENTS      3  3  4  4  4  2  3  4  2  3  4  2  3  4  5  6  7  8  9 10
TYPE ASSIGNMENTS      5  6  7  8  9 10  5  6  7  8  9 10 11 12 13 17 14 15 18 19
TYPE ASSIGNMENTS     16 20 11 12 13 17 14 15 18 19 16 20  1  1  1  1  1  1  2  3
TYPE ASSIGNMENTS      4  2  3  4  2  3  4  5  6  7  8  9 10  5  6  7  8  9 10  1
TYPE ASSIGNMENTS      1  1  1  1  1  2  3  4  2  3  4  2  3  4  5  6  7  8  9 10
TYPE ASSIGNMENTS      5  6  7  8  9 10
EXPONENTS  0.1533000D+05 0.2299000D+04 0.5224000D+03 0.1473000D+03 0.4755000D+02
EXPONENTS  0.1676000D+02 0.6207000D+01 0.5224000D+03 0.1473000D+03 0.4755000D+02
EXPONENTS  0.1676000D+02 0.6207000D+01 0.6882000D+00 0.1752000D+01 0.2384000D+00
EXPONENTS  0.7376000D-01 0.3446000D+02 0.7749000D+01 0.2280000D+01 0.3446000D+02
EXPONENTS  0.7749000D+01 0.2280000D+01 0.3446000D+02 0.7749000D+01 0.2280000D+01
EXPONENTS  0.7156000D+00 0.7156000D+00 0.7156000D+00 0.2140000D+00 0.2140000D+00
EXPONENTS  0.2140000D+00 0.5974000D-01 0.5974000D-01 0.5974000D-01 0.2314000D+01
EXPONENTS  0.2314000D+01 0.2314000D+01 0.2314000D+01 0.2314000D+01 0.2314000D+01
EXPONENTS  0.6450000D+00 0.6450000D+00 0.6450000D+00 0.6450000D+00 0.6450000D+00
EXPONENTS  0.6450000D+00 0.2140000D+00 0.2140000D+00 0.2140000D+00 0.2140000D+00
EXPONENTS  0.2140000D+00 0.2140000D+00 0.1428000D+01 0.1428000D+01 0.1428000D+01
EXPONENTS  0.1428000D+01 0.1428000D+01 0.1428000D+01 0.1428000D+01 0.1428000D+01
EXPONENTS  0.1428000D+01 0.1428000D+01 0.5000000D+00 0.5000000D+00 0.5000000D+00
EXPONENTS  0.5000000D+00 0.5000000D+00 0.5000000D+00 0.5000000D+00 0.5000000D+00
EXPONENTS  0.5000000D+00 0.5000000D+00 0.3387000D+02 0.5095000D+01 0.1159000D+01
EXPONENTS  0.3258000D+00 0.1027000D+00 0.2526000D-01 0.1407000D+01 0.1407000D+01
EXPONENTS  0.1407000D+01 0.3880000D+00 0.3880000D+00 0.3880000D+00 0.1020000D+00
EXPONENTS  0.1020000D+00 0.1020000D+00 0.1057000D+01 0.1057000D+01 0.1057000D+01
EXPONENTS  0.1057000D+01 0.1057000D+01 0.1057000D+01 0.2470000D+00 0.2470000D+00
EXPONENTS  0.2470000D+00 0.2470000D+00 0.2470000D+00 0.2470000D+00 0.3387000D+02
EXPONENTS  0.5095000D+01 0.1159000D+01 0.3258000D+00 0.1027000D+00 0.2526000D-01
EXPONENTS  0.1407000D+01 0.1407000D+01 0.1407000D+01 0.3880000D+00 0.3880000D+00
EXPONENTS  0.3880000D+00 0.1020000D+00 0.1020000D+00 0.1020000D+00 0.1057000D+01
EXPONENTS  0.1057000D+01 0.1057000D+01 0.1057000D+01 0.1057000D+01 0.1057000D+01
EXPONENTS  0.2470000D+00 0.2470000D+00 0.2470000D+00 0.2470000D+00 0.2470000D+00
EXPONENTS  0.2470000D+00
MO    1     MO 0.0        OCC NO =    2.0000000  ORB. ENERGY =    0.000000
  0.41967261D-01  0.78220074D-01  0.13263313D+00  0.20072614D+00  0.25039003D+00
  0.21487190D+00  0.82284522D-01 -0.33731008D-03 -0.36191158D-02 -0.13340742D-01
 -0.39007548D-01 -0.47005992D-01  0.56623699D-01  0.39423645D-01 -0.26650498D-01
 -0.65210618D-02  0.51729440D+00  0.50160156D+00  0.33837745D+00 -0.54880110D+00
 -0.53215246D+00 -0.35898691D+00 -0.12862463D+01 -0.12472263D+01 -0.84137146D+00
  0.11669256D+00 -0.11377835D+00 -0.27958149D+00  0.18876536D-01 -0.10927055D-01
 -0.32639371D-01  0.59483596D-03 -0.12135844D-03 -0.63201035D-03 -0.40040480D-01
  0.60713986D-02  0.33969082D-01  0.86958779D-03 -0.24389343D-01  0.50696168D-01
 -0.57466739D-02 -0.43814194D-02  0.10128093D-01 -0.18108265D-03 -0.62259437D-02
  0.66404221D-02  0.69999989D-03 -0.12068516D-02  0.50685168D-03 -0.10710313D-03
 -0.33261483D-03 -0.37661746D-03 -0.33913157D-02 -0.26884269D-02 -0.64266006D-03
  0.60129320D-02  0.61506230D-02  0.16183785D-01  0.41610151D-02  0.19146577D-02
 -0.14255804D-01 -0.17010330D-02 -0.98774653D-04 -0.50315026D-04 -0.62298195D-03
  0.51633765D-04  0.32022748D-03  0.15052814D-03  0.24469019D-03 -0.16928240D-03
  0.17184177D-02  0.13791755D-03  0.41930272D-01  0.75622973D-01  0.11150603D+00
  0.76383238D-01  0.10067830D-01  0.34477994D-04  0.71686615D-02  0.34690272D-01
  0.14867442D-01  0.38797646D-02  0.13720714D-01  0.46603044D-02  0.59442585D-03
  0.98893756D-05 -0.79770435D-03 -0.63909525D-02  0.77192173D-02 -0.13282648D-02
  0.35507322D-02  0.25538636D-02  0.16194665D-01 -0.10771470D-03  0.13234574D-03
 -0.24631048D-04  0.37200365D-03  0.20285100D-03 -0.18788994D-03  0.14546978D-01
  0.26236074D-01  0.38685076D-01  0.25728748D-01  0.39978428D-02  0.12022683D-03
  0.62327594D-02 -0.19711265D-01 -0.53964133D-02  0.34922099D-02 -0.83576340D-02
 -0.34365231D-02  0.59055478D-03 -0.24798690D-03 -0.93504168D-03 -0.13921988D-02
  0.52426166D-02 -0.38504178D-02 -0.28488917D-02  0.26470029D-02 -0.83917853D-03
 -0.93657858D-04  0.26497035D-03 -0.17131250D-03 -0.34951759D-03  0.24280352D-03
  0.59361003D-03
MO    2     MO 0.0        OCC NO =    2.0000000  ORB. ENERGY =    0.000000
  0.86692777D-01  0.16158108D+00  0.27398343D+00  0.41464479D+00  0.51723669D+00
  0.44386603D+00  0.16997711D+00 -0.15396437D-03 -0.16519367D-02 -0.60893497D-02
 -0.17804901D-01 -0.21455772D-01  0.25845751D-01  0.26090369D-01  0.69562472D-02
  0.33614794D-03  0.12315644D+01  0.11942032D+01  0.80560241D+00  0.10054963D+01
  0.97499320D+00  0.65772465D+00  0.15279287D-01  0.14815769D-01  0.99946303D-02
  0.27748743D+00  0.20731233D+00  0.34969002D-02  0.45107364D-01  0.18891543D-01
  0.13087118D-02  0.14307919D-02  0.15477072D-03  0.47545283D-04 -0.12824930D-02
  0.24294692D-02 -0.11469763D-02  0.43807618D-02 -0.52398380D-01 -0.96155343D-01
 -0.97475315D-04  0.27655559D-03 -0.17908027D-03  0.58254326D-03 -0.13094917D-01
 -0.12334977D-01  0.56492353D-04 -0.41151343D-04 -0.15341010D-04 -0.34239408D-04
 -0.81016853D-03  0.75804214D-03 -0.75146893D-02  0.43891126D-02  0.54201151D-03
  0.16225795D-01 -0.89030029D-02 -0.26916791D-03  0.63182728D-02 -0.42643348D-02
 -0.13568666D-02 -0.61782790D-03 -0.27124343D-03  0.73625593D-04 -0.50929920D-04
  0.41136424D-03 -0.55947586D-03 -0.97631296D-04  0.40236605D-03  0.33859908D-03
  0.25042106D-03 -0.72131820D-04 -0.24361257D-01 -0.43936531D-01 -0.64784389D-01
 -0.47256510D-01 -0.61161346D-02  0.77387739D-04  0.16968854D-01 -0.13152959D-01
 -0.17549405D-01  0.91988286D-02 -0.55073824D-02 -0.73913134D-02  0.14065998D-02
  0.10497304D-03 -0.11598762D-03  0.49984031D-02 -0.27711473D-02 -0.22272558D-02
  0.84049504D-02  0.62707315D-02 -0.14673482D-01  0.53982679D-04  0.69787229D-04
 -0.12376991D-03  0.88876186D-03  0.54081085D-03 -0.43237810D-03  0.29361332D-01
  0.52954371D-01  0.78081190D-01  0.52082681D-01  0.58399203D-02 -0.90359389D-04
  0.15065750D-01 -0.17949895D-01  0.22119890D-01  0.84751885D-02 -0.60437890D-02
  0.85111073D-02  0.13946925D-02  0.19209052D-03  0.16038021D-03 -0.57044138D-02
  0.29744648D-02  0.27299489D-02 -0.70312691D-02  0.49037946D-02 -0.16049263D-01
 -0.85223083D-04 -0.84942196D-04  0.17016528D-03 -0.84901020D-03  0.50443722D-03
 -0.44706161D-03
MO    3     MO 0.0        OCC NO =    2.0000000  ORB. ENERGY =    0.000000
 -0.63446091D-01 -0.11825308D+00 -0.20051472D+00 -0.30345771D+00 -0.37853957D+00
 -0.32484327D+00 -0.12439771D+00  0.10925499D-03  0.11722343D-02  0.43210763D-02
  0.12634574D-01  0.15225276D-01 -0.18340458D-01 -0.18579374D-01  0.15440578D-01
  0.33484497D-02  0.11720305D+01  0.11364753D+01  0.76665952D+00 -0.88400034D+00
 -0.85718297D+00 -0.57825057D+00  0.69409735D+00  0.67304095D+00  0.45402945D+00
  0.26544725D+00 -0.18370590D+00  0.15128800D+00  0.44330291D-01 -0.17947492D-01
  0.18517628D-01  0.14416034D-02 -0.21087050D-03  0.38819682D-03  0.21583264D-01
 -0.23684879D-02 -0.19214776D-01 -0.50044019D-02 -0.44369239D-01  0.80537191D-01
  0.32941149D-02  0.23160836D-02 -0.56101985D-02 -0.49453958D-03 -0.11913076D-01
  0.10735411D-01 -0.29660143D-03  0.58987929D-03 -0.29327786D-03  0.86573261D-04
 -0.88196567D-03 -0.55351869D-03 -0.66690340D-02 -0.44471926D-02  0.67471869D-03
  0.14104644D-01  0.10249729D-01 -0.96495612D-02  0.59024579D-02  0.30918490D-02
  0.76254051D-02  0.16108935D-02 -0.24014747D-03 -0.81387093D-04  0.32576959D-03
  0.38026473D-03  0.54827267D-03 -0.12923538D-03  0.34017769D-03 -0.30411139D-03
 -0.84807340D-03  0.78977608D-05  0.84492402D-02  0.15238553D-01  0.22469237D-01
  0.15571058D-01  0.12992060D-02 -0.10840101D-03  0.16400889D-01 -0.10843056D-02
  0.15178469D-01  0.89729257D-02 -0.11968457D-02  0.67331642D-02  0.13995913D-02
 -0.27605496D-03  0.61155983D-03 -0.24120522D-02 -0.12326661D-02  0.36447183D-02
  0.82046607D-02  0.60640090D-02  0.87917740D-02  0.18529240D-04 -0.21585232D-03
  0.19732308D-03  0.85271491D-03  0.55696837D-03  0.55781628D-03 -0.34965966D-01
 -0.63062560D-01 -0.92985708D-01 -0.64675410D-01 -0.83744541D-02  0.27104902D-04
  0.18545819D-01  0.24181888D-01 -0.16867791D-01  0.98434088D-02  0.94393019D-02
 -0.61190435D-02  0.14110370D-02 -0.12769929D-03  0.38695711D-03  0.52337714D-02
 -0.48679663D-02 -0.36580509D-03 -0.98225668D-02  0.72977255D-02  0.15277943D-01
  0.29858538D-04  0.11449781D-04 -0.41308319D-04 -0.89612128D-03  0.56432415D-03
  0.93068807D-04
MO    4     MO 0.0        OCC NO =    2.0000000  ORB. ENERGY =    0.000000
  0.48619138D+00  0.90618079D+00  0.15365569D+01  0.23254154D+01  0.29007725D+01
  0.24892943D+01  0.95326748D+00  0.80358486D-03  0.86219382D-02  0.31782087D-01
  0.92928959D-01  0.11198391D+00 -0.13489649D+00 -0.25504396D-01 -0.35435284D-01
 -0.21920559D-02 -0.66775115D-01 -0.64749400D-01 -0.43679562D-01 -0.21522008D+00
 -0.20869108D+00 -0.14078177D+00 -0.17166236D-03 -0.16645474D-03 -0.11228939D-03
 -0.15053101D-01 -0.44551583D-01  0.24258994D-02 -0.22774944D-02 -0.41825655D-02
 -0.18281912D-02 -0.70845952D-04 -0.40095046D-04 -0.36959649D-04  0.75582919D-02
 -0.75174561D-02 -0.40835736D-04 -0.18565369D-02  0.37694634D-02  0.20227485D-01
  0.26073624D-02 -0.22839701D-02 -0.32339225D-03 -0.43634708D-03  0.97108769D-03
  0.26569670D-02  0.19958738D-04 -0.62383837D-05 -0.13720354D-04  0.44118927D-05
  0.39900722D-04 -0.14802646D-03  0.49301396D-03 -0.98941251D-03 -0.49596545D-03
 -0.11183512D-02  0.21273996D-02 -0.14537097D-02 -0.36069068D-03  0.84083797D-03
  0.29416061D-02  0.40834281D-03  0.30730490D-04 -0.16527605D-04  0.88749881D-05
 -0.41346533D-04  0.12442920D-03 -0.32115234D-03 -0.50844936D-04 -0.74846389D-04
  0.29452738D-03  0.58607947D-04 -0.32399622D-02 -0.58434053D-02 -0.86160977D-02
  0.32955562D-02  0.23889327D-02  0.21302125D-04 -0.87806755D-03 -0.66179504D-02
 -0.39296113D-02 -0.45237393D-03 -0.63162574D-04 -0.26690641D-04 -0.66952600D-04
  0.10581615D-03  0.18039127D-04  0.90156047D-03 -0.92002467D-03  0.18464201D-04
 -0.41080549D-03 -0.32297578D-03 -0.28368194D-02 -0.36738532D-04  0.26987598D-04
  0.97509341D-05 -0.43796108D-04 -0.27283644D-04  0.10894900D-03 -0.14387857D-01
 -0.25949092D-01 -0.38261921D-01 -0.17294526D-01 -0.84691165D-04  0.56638169D-04
  0.11156964D-03  0.12835152D-01 -0.12120333D-01 -0.23200860D-03  0.23388318D-02
 -0.33129744D-02 -0.73896563D-04 -0.18450716D-03 -0.38291383D-04  0.30022132D-02
 -0.19960714D-02 -0.10061418D-02 -0.30408908D-03  0.33552406D-03  0.90778410D-02
 -0.16721212D-04  0.68885734D-04 -0.52164522D-04  0.45907611D-04 -0.21678336D-04
  0.68426468D-04
MO    5     MO 0.0        OCC NO =    2.0000000  ORB. ENERGY =    0.000000
  0.97864584D-01  0.18240349D+00  0.30929076D+00  0.46807867D+00  0.58389124D+00
  0.50106556D+00  0.19188149D+00 -0.14975178D-02 -0.16067383D-01 -0.59227399D-01
 -0.17317744D+00 -0.20868724D+00  0.25138589D+00  0.16622968D+00  0.95891939D-01
  0.87657477D-02 -0.20791148D+00 -0.20160419D+00 -0.13600100D+00 -0.15933511D+00
 -0.15450146D+00 -0.10422577D+00  0.67709259D+00  0.65655205D+00  0.44290613D+00
 -0.46462540D-01 -0.32848508D-01  0.14380278D+00 -0.74612658D-02 -0.29947367D-02
  0.21279699D-01 -0.22491364D-03 -0.24928889D-04  0.40341578D-03 -0.14662168D-02
  0.19299922D-01 -0.17833705D-01  0.70175571D-03  0.90328442D-02  0.15281492D-01
 -0.24457727D-02  0.69850373D-02 -0.45392646D-02  0.53040361D-03  0.20819778D-02
  0.19481722D-02 -0.33605793D-03  0.56101977D-03 -0.22496183D-03  0.63165496D-04
  0.10840886D-03 -0.11792839D-03  0.11968605D-02 -0.70788750D-03  0.26707259D-02
 -0.21176636D-02  0.14416976D-02 -0.23617845D-02 -0.14729179D-02  0.68196492D-03
 -0.56503932D-02 -0.12814084D-03  0.41931871D-04 -0.11157222D-04 -0.24752992D-04
 -0.66536404D-04  0.85256940D-04 -0.43616845D-04 -0.59259208D-04 -0.51785273D-04
  0.11787582D-03  0.25088794D-04  0.87154593D-02  0.15718690D-01  0.23177199D-01
 -0.58418535D-02 -0.60166911D-02 -0.14548553D-03 -0.29104454D-02  0.81050883D-02
  0.17868980D-01 -0.15975705D-02 -0.39731457D-02  0.36102574D-02 -0.23747201D-03
 -0.54125383D-03  0.40170513D-03 -0.70108555D-03 -0.20264975D-02  0.27275831D-02
 -0.14745412D-02 -0.10383086D-02  0.43756930D-02  0.13617665D-03 -0.25417558D-03
  0.11799893D-03 -0.15624275D-03 -0.72998931D-04  0.11026798D-03  0.16351917D-03
  0.29491355D-03  0.43484985D-03 -0.21581859D-01 -0.79135165D-02 -0.11887887D-03
 -0.30005932D-02 -0.31416516D-02  0.11531392D-01 -0.11660695D-02  0.57968673D-02
  0.10924096D-02 -0.20121777D-03  0.49462329D-03  0.35768801D-03  0.99755484D-03
 -0.29345413D-02  0.19369864D-02  0.92135954D-03 -0.95504617D-03  0.50841289D-03
  0.15820210D-03 -0.22979520D-03  0.71593100D-04  0.99110782D-04 -0.69969762D-04
  0.28535248D-04
END DATA
 TOTAL ENERGY =    -76.466195734020 THE VIRIAL(-V/T)=   2.00599447
