 66
GAUSSIAN              5 MOL ORBITALS    126 PRIMITIVES        3 NUCLEI   B3LYP   B3LYP   B3LYP
  O    1    (CENTRE  1)   0.00000000  0.00000000  0.00815606  CHARGE =  8.0
  H    2    (CENTRE  2)   0.00000000 -1.44255835 -1.09730160  CHARGE =  1.0
  H    3    (CENTRE  3)  -0.09448631  1.44255835 -1.09730160  CHARGE =  1.0
CENTRE ASSIGNMENTS    1  1  1  1  1  1  1  1  1  1  1  1  1  1  1  1  1  1  1  1
CENTRE ASSIGNMENTS    1  1  1  1  1  1  1  1  1  1  1  1  1  1  1  1  1  1  1  1
CENTRE ASSIGNMENTS    1  1  1  1  1  1  1  1  1  1  1  1  1  1  1  1  1  1  1  1
CENTRE ASSIGNMENTS    1  1  1  1  1  1  1  1  1  1  1  1  2  2  2  2  2  2  2  2
CENTRE ASSIGNMENTS    2  2  2  2  2  2  2  2  2  2  2  2  2  2  2  2  2  2  2  3
CENTRE ASSIGNMENTS    3  3  3  3  3  3  3  3  3  3  3  3  3  3  3  3  3  3  3  3
CENTRE ASSIGNMENTS    3  3  3  3  3  3
TYPE ASSIGNMENTS      1  1  1  1  1  1  1  1  1  1  1  1  1  1  1  1  2  2  2  3
TYPE ASSIGNMENTS      3  3  4  4  4  2  3  4  2  3  4  2  3  4  5  6  7  8  9 10
TYPE ASSIGNMENTS      5  6  7  8  9 10  5  6  7  8  9 10 11 12 13 17 14 15 18 19
TYPE ASSIGNMENTS     16 20 11 12 13 17 14 15 18 19 16 20  1  1  1  1  1  1  2  3
TYPE ASSIGNMENTS      4  2  3  4  2  3  4  5  6  7  8  9 10  5  6  7  8  9 10  1
TYPE ASSIGNMENTS      1  1  1  1  1  2  3  4  2  3  4  2  3  4  5  6  7  8  9 10
TYPE ASSIGNMENTS      5  6  7  8  9 10
EXPONENTS  0.1533000D+05 0.2299000D+04 0.5224000D+03 0.1473000D+03 0.4755000D+02
EXPONENTS  0.1676000D+02 0.6207000D+01 0.5224000D+03 0.1473000D+03 0.4755000D+02
EXPONENTS  0.1676000D+02 0.6207000D+01 0.6882000D+00 0.1752000D+01 0.2384000D+00
EXPONENTS  0.7376000D-01 0.3446000D+02 0.7749000D+01 0.2280000D+01 0.3446000D+02
EXPONENTS  0.7749000D+01 0.2280000D+01 0.3446000D+02 0.7749000D+01 0.2280000D+01
EXPONENTS  0.7156000D+00 0.7156000D+00 0.7156000D+00 0.2140000D+00 0.2140000D+00
EXPONENTS  0.2140000D+00 0.5974000D-01 0.5974000D-01 0.5974000D-01 0.2314000D+01
EXPONENTS  0.2314000D+01 0.2314000D+01 0.2314000D+01 0.2314000D+01 0.2314000D+01
EXPONENTS  0.6450000D+00 0.6450000D+00 0.6450000D+00 0.6450000D+00 0.6450000D+00
EXPONENTS  0.6450000D+00 0.2140000D+00 0.2140000D+00 0.2140000D+00 0.2140000D+00
EXPONENTS  0.2140000D+00 0.2140000D+00 0.1428000D+01 0.1428000D+01 0.1428000D+01
EXPONENTS  0.1428000D+01 0.1428000D+01 0.1428000D+01 0.1428000D+01 0.1428000D+01
EXPONENTS  0.1428000D+01 0.1428000D+01 0.5000000D+00 0.5000000D+00 0.5000000D+00
EXPONENTS  0.5000000D+00 0.5000000D+00 0.5000000D+00 0.5000000D+00 0.5000000D+00
EXPONENTS  0.5000000D+00 0.5000000D+00 0.3387000D+02 0.5095000D+01 0.1159000D+01
EXPONENTS  0.3258000D+00 0.1027000D+00 0.2526000D-01 0.1407000D+01 0.1407000D+01
EXPONENTS  0.1407000D+01 0.3880000D+00 0.3880000D+00 0.3880000D+00 0.1020000D+00
EXPONENTS  0.1020000D+00 0.1020000D+00 0.1057000D+01 0.1057000D+01 0.1057000D+01
EXPONENTS  0.1057000D+01 0.1057000D+01 0.1057000D+01 0.2470000D+00 0.2470000D+00
EXPONENTS  0.2470000D+00 0.2470000D+00 0.2470000D+00 0.2470000D+00 0.3387000D+02
EXPONENTS  0.5095000D+01 0.1159000D+01 0.3258000D+00 0.1027000D+00 0.2526000D-01
EXPONENTS  0.1407000D+01 0.1407000D+01 0.1407000D+01 0.3880000D+00 0.3880000D+00
EXPONENTS  0.3880000D+00 0.1020000D+00 0.1020000D+00 0.1020000D+00 0.1057000D+01
EXPONENTS  0.1057000D+01 0.1057000D+01 0.1057000D+01 0.1057000D+01 0.1057000D+01
EXPONENTS  0.2470000D+00 0.2470000D+00 0.2470000D+00 0.2470000D+00 0.2470000D+00
EXPONENTS  0.2470000D+00
MO    1     MO 0.0        OCC NO =    2.0000000  ORB. ENERGY =    0.000000
  0.18385799D+00  0.34268107D+00  0.58106390D+00  0.87937843D+00  0.10969553D+01
  0.94135083D+00  0.36048736D+00  0.72690493D-04  0.77992129D-03  0.28749367D-02
  0.84061464D-02  0.10129815D-01 -0.12202436D-01  0.14196462D-01 -0.12701350D-03
  0.24943158D-03 -0.93114001D-01 -0.90289259D-01 -0.60908601D-01  0.13658598D+01
  0.13244246D+01  0.89344901D+00  0.62712209D-01  0.60809747D-01  0.41021896D-01
 -0.20188934D-01  0.28256890D+00  0.13973168D-01 -0.27031112D-02  0.26566133D-01
  0.14840857D-02 -0.68126709D-04  0.26170910D-03  0.28674089D-04  0.18144783D-02
 -0.78244570D-04 -0.17362337D-02 -0.53543903D-02  0.59967516D-02 -0.12792099D+00
  0.48658394D-03  0.24514215D-04 -0.51109816D-03 -0.68454635D-03  0.10027545D-02
 -0.16662938D-01 -0.25648505D-04  0.48623803D-04 -0.22975298D-04  0.35971817D-04
  0.44371292D-05  0.95883637D-03  0.73883439D-03  0.63687341D-02  0.18779167D-03
 -0.21802815D-02 -0.13792764D-01 -0.54166260D-03 -0.36221649D-04 -0.53134387D-02
 -0.21712412D-04  0.70527350D-03  0.32138417D-04  0.11226502D-03 -0.11056815D-04
 -0.73015720D-04 -0.79474260D-03 -0.11598414D-03 -0.23399532D-04  0.45794753D-03
  0.14915459D-03  0.91041344D-04 -0.36968180D-01 -0.66673636D-01 -0.98310237D-01
 -0.68089544D-01 -0.81710381D-02  0.10760981D-03 -0.11394455D-02 -0.21728446D-01
 -0.26727176D-01 -0.57942452D-03 -0.80039578D-02 -0.10655759D-01 -0.73737820D-04
  0.23845417D-03 -0.15014175D-03  0.72971795D-02 -0.41266361D-02 -0.31705434D-02
 -0.52446289D-03 -0.45131174D-03 -0.21520172D-01  0.60059820D-04  0.12811174D-03
 -0.18817156D-03 -0.64626082D-04 -0.26421456D-04 -0.54206769D-03  0.33362172D-01
  0.60170050D-01  0.88720704D-01  0.61953427D-01  0.74810583D-02 -0.11194019D-03
  0.94883508D-03 -0.17638864D-01  0.25221022D-01  0.25814295D-03 -0.63750053D-02
  0.10163215D-01 -0.59051573D-04  0.26468564D-03  0.21139938D-03 -0.60415855D-02
  0.27207650D-02  0.33208205D-02 -0.10027245D-02  0.11390603D-02 -0.18213696D-01
 -0.50162225D-04 -0.14586100D-03  0.19602322D-03  0.19096960D-04  0.16585597D-04
 -0.56374283D-03
MO    2     MO 0.0        OCC NO =    2.0000000  ORB. ENERGY =    0.000000
  0.26060012D+00  0.48571578D+00  0.82359936D+00  0.12464301D+01  0.15548232D+01
  0.13342697D+01  0.51095440D+00 -0.14548886D-03 -0.15610000D-02 -0.57541400D-02
 -0.16824768D-01 -0.20274663D-01  0.24422981D-01  0.45518470D-01 -0.24294081D-01
 -0.52035046D-02 -0.89501729D+00 -0.86786571D+00 -0.58545708D+00 -0.31350481D+00
 -0.30399421D+00 -0.20507270D+00 -0.96509447D+00 -0.93581700D+00 -0.63129662D+00
 -0.20192670D+00 -0.65363844D-01 -0.20901351D+00 -0.32922448D-01 -0.65826167D-02
 -0.24460341D-01 -0.10456251D-02 -0.88750195D-04 -0.46527817D-03 -0.29685271D-01
  0.45291773D-02  0.25156094D-01 -0.10658518D-02  0.39244164D-01  0.27987023D-01
 -0.38160097D-02 -0.36955530D-02  0.75115628D-02  0.13056592D-03  0.99935410D-02
  0.37645821D-02  0.56415624D-03 -0.93809753D-03  0.37394129D-03  0.87100681D-04
  0.59594100D-03 -0.18934909D-03  0.55919162D-02 -0.16882336D-02 -0.26261384D-03
 -0.10959045D-01  0.41695728D-02  0.12027115D-01 -0.58167035D-02  0.89512795D-03
 -0.11239274D-01  0.13569176D-02  0.17671297D-03 -0.33233466D-04 -0.51619474D-03
 -0.18788660D-03  0.19341673D-03 -0.46723284D-04 -0.34225230D-03 -0.93716332D-04
  0.15953075D-02 -0.11978051D-03  0.27874300D-01  0.50272449D-01  0.74126696D-01
  0.51512810D-01  0.70564627D-02  0.40326101D-04 -0.12400817D-01  0.23172700D-01
  0.82717180D-02 -0.67316529D-02  0.93552693D-02  0.24409662D-02 -0.10341933D-02
  0.11341148D-04 -0.61843877D-03 -0.37058775D-02  0.49899881D-02 -0.12841106D-02
 -0.61557810D-02 -0.45060871D-02  0.89844282D-02 -0.74303918D-04  0.10399190D-03
 -0.29687984D-04 -0.64655135D-03 -0.37850310D-03 -0.19936762D-03  0.13230978D-01
  0.23862613D-01  0.35185409D-01  0.24437939D-01  0.38206414D-02  0.86453301D-04
 -0.11554142D-01 -0.15704159D-01 -0.25629738D-02 -0.63683656D-02 -0.67949140D-02
 -0.18794701D-02 -0.10285763D-02 -0.18656172D-03 -0.69047717D-03 -0.13100557D-02
  0.39403504D-02 -0.26302947D-02  0.55853145D-02 -0.45140418D-02 -0.98726079D-03
 -0.96821230D-04  0.20438542D-03 -0.10756419D-03  0.62262671D-03 -0.40368026D-03
  0.39572389D-03
MO    3     MO 0.0        OCC NO =    2.0000000  ORB. ENERGY =    0.000000
  0.15038273D+00  0.28028867D+00  0.47526883D+00  0.71926884D+00  0.89723119D+00
  0.76995784D+00  0.29485295D+00  0.77834722D-04  0.83511548D-03  0.30783929D-02
  0.90010403D-02  0.10846691D-01 -0.13065989D-01  0.95641348D-02 -0.23130963D-01
 -0.37365429D-02  0.15364614D+01  0.14898507D+01  0.10050445D+01 -0.54579907D-01
 -0.52924150D-01 -0.35702319D-01 -0.68340403D+00 -0.66267203D+00 -0.44703463D+00
  0.34717859D+00 -0.10306921D-01 -0.14849394D+00  0.57288738D-01 -0.14608624D-03
 -0.18781693D-01  0.18434039D-02  0.40563868D-04 -0.39967268D-03 -0.19669464D-01
  0.54210366D-03  0.19127360D-01 -0.96725804D-03 -0.61125331D-01  0.78758664D-02
 -0.27420489D-02 -0.27442660D-02  0.54863148D-02  0.69675594D-04 -0.15876129D-01
  0.74239279D-03  0.28182343D-03 -0.57030805D-03  0.28848462D-03  0.56908369D-04
 -0.10927731D-02 -0.11673926D-03 -0.89936039D-02  0.14727275D-03 -0.87126118D-03
  0.19378620D-01 -0.10876049D-02  0.93465168D-02  0.76021921D-02  0.64578659D-03
 -0.67327333D-02  0.10224690D-02 -0.33138624D-03  0.68793281D-05 -0.31197963D-03
  0.52841341D-03 -0.89443075D-05  0.81597058D-04  0.46574531D-03 -0.11693677D-04
  0.85434183D-03 -0.74168464D-04  0.13436095D-01  0.24232551D-01  0.35730883D-01
  0.27080803D-01  0.42692736D-02  0.39616340D-04  0.21345670D-01  0.12216215D-01
  0.80566679D-03  0.11629170D-01  0.58157774D-02  0.30036754D-04  0.17977805D-02
  0.14386808D-03 -0.48613864D-03 -0.17636496D-02  0.32734660D-02 -0.15098164D-02
  0.10629598D-01  0.79020888D-02  0.35970874D-02 -0.61973288D-04  0.13426131D-03
 -0.72288018D-04  0.11134033D-02  0.70857272D-03 -0.16810534D-03  0.80253346D-02
  0.14474022D-01  0.21341936D-01  0.17059361D-01  0.30800529D-02  0.56734756D-04
  0.21762156D-01 -0.77416138D-02 -0.31953389D-02  0.11846085D-01 -0.39413020D-02
 -0.15647779D-02  0.17997825D-02 -0.67953320D-04 -0.51219374D-03 -0.30559816D-04
  0.20345471D-02 -0.20039873D-02 -0.10944144D-01  0.78568946D-02 -0.13913601D-04
  0.17388073D-04  0.83434102D-04 -0.10082217D-03 -0.11238974D-02  0.68570867D-03
  0.29391906D-03
MO    4     MO 0.0        OCC NO =    2.0000000  ORB. ENERGY =    0.000000
  0.36236930D+00  0.67539680D+00  0.11452302D+01  0.17331841D+01  0.21620105D+01
  0.18553267D+01  0.71049156D+00  0.33167273D-03  0.35586307D-02  0.13117783D-01
  0.38355628D-01  0.46220396D-01 -0.55677365D-01  0.88154911D-02  0.17964808D-01
  0.47394463D-02  0.78022882D-01  0.75655951D-01  0.51037057D-01 -0.44555297D+00
 -0.43203650D+00 -0.29144927D+00  0.95080813D+00  0.92196405D+00  0.62195150D+00
  0.17042961D-01 -0.92256962D-01  0.20762557D+00  0.21666327D-02 -0.87036318D-02
  0.24216504D-01  0.50120785D-04 -0.85698411D-04  0.47216513D-03  0.28443915D-01
 -0.31076591D-02 -0.25336256D-01  0.38599029D-02 -0.69133798D-02  0.41656895D-01
  0.46058805D-02  0.29206059D-02 -0.75264864D-02  0.34700740D-03 -0.14602824D-02
  0.54747215D-02 -0.47206906D-03  0.84955230D-03 -0.37748324D-03 -0.99420064D-04
  0.21312826D-05 -0.29950242D-03 -0.77617259D-03 -0.20776831D-02  0.88406190D-03
  0.11645204D-02  0.44648856D-02 -0.11414855D-01  0.11639974D-02  0.17681638D-02
  0.87626694D-02 -0.15684863D-02 -0.28818214D-04 -0.34892795D-04  0.35755350D-03
 -0.27679337D-05  0.26415383D-03 -0.35472715D-03  0.89222575D-04 -0.15947544D-03
 -0.71793334D-03 -0.13097830D-04 -0.97290981D-02 -0.17546829D-01 -0.25872789D-01
 -0.17115205D-01 -0.26988589D-02 -0.91197674D-04  0.98606561D-03 -0.14541672D-01
  0.45254764D-02  0.49181948D-03 -0.63004329D-02  0.26461418D-02  0.62240339D-04
 -0.20500306D-03  0.67685107D-03  0.14480161D-02 -0.44043181D-02  0.29563021D-02
  0.45232753D-03  0.31341086D-03 -0.20731382D-02  0.56031785D-04 -0.19555027D-03
  0.13951848D-03  0.51996376D-04  0.28374277D-05  0.44222554D-03 -0.32705826D-01
 -0.58986303D-01 -0.86975270D-01 -0.59540537D-01 -0.78178247D-02 -0.19186607D-04
 -0.11082280D-02  0.27298390D-01 -0.12395114D-01 -0.36434616D-03  0.10967166D-01
 -0.41438851D-02  0.48941082D-04  0.41881175D-04  0.55764643D-03  0.57603341D-02
 -0.65958746D-02  0.83554052D-03  0.12938825D-02 -0.79760330D-03  0.14962167D-01
  0.95684366D-04 -0.10730805D-03  0.11623681D-04 -0.63247107D-05  0.55179437D-05
 -0.74687839D-04
MO    5     MO 0.0        OCC NO =    2.0000000  ORB. ENERGY =    0.000000
 -0.60159524D-01 -0.11212746D+00 -0.19012787D+00 -0.28773831D+00 -0.35893086D+00
 -0.30801608D+00 -0.11795380D+00 -0.17015322D-02 -0.18256324D-01 -0.67296248D-01
 -0.19677028D+00 -0.23711776D+00  0.28563347D+00  0.16858306D+00  0.99999894D-01
  0.84811567D-02  0.17075834D+00  0.16557815D+00  0.11169805D+00 -0.38278112D-02
 -0.37116892D-02 -0.25038836D-02  0.53709520D+00  0.52080168D+00  0.35132973D+00
  0.38191750D-01 -0.66463870D-03  0.11274084D+00  0.62563467D-02  0.29809351D-04
  0.18066816D-01  0.19025666D-03  0.44019741D-05  0.34135110D-03 -0.70390288D-02
  0.21140059D-01 -0.14101030D-01 -0.18139767D-02 -0.66853869D-02  0.69677147D-03
 -0.36240084D-02  0.69947252D-02 -0.33707168D-02 -0.69103092D-03 -0.15420772D-02
  0.38094566D-04 -0.27072710D-03  0.43765532D-03 -0.16692822D-03 -0.46306377D-04
 -0.94289926D-04 -0.10975652D-04 -0.90574387D-03  0.12184273D-04  0.26260044D-02
  0.15383999D-02 -0.10548857D-03 -0.43758128D-03  0.11788318D-02  0.68935754D-04
 -0.74404319D-02  0.45731619D-03 -0.28199375D-04  0.10503794D-05 -0.75911894D-04
  0.52568215D-04 -0.54858359D-05  0.76215554D-04  0.32029910D-04  0.23346976D-05
  0.15152013D-03 -0.65231430D-05  0.95214410D-02  0.17172311D-01  0.25320562D-01
 -0.62423499D-02 -0.63477356D-02 -0.13211986D-03  0.24236386D-02  0.10829830D-01
  0.17036971D-01  0.13457099D-02 -0.32723773D-02  0.28659433D-02  0.20177898D-03
 -0.52130888D-03  0.29328484D-03 -0.87239173D-03 -0.13021024D-02  0.21744941D-02
  0.12444810D-02  0.86553945D-03  0.45818217D-02  0.13654748D-03 -0.22542957D-03
  0.88882092D-04  0.13100137D-03  0.62176198D-04  0.58057127D-05  0.90104414D-02
  0.16250702D-01  0.23961651D-01 -0.71290029D-02 -0.64560958D-02 -0.13077582D-03
  0.30934541D-02 -0.10354838D-01  0.16621997D-01  0.11159717D-02  0.34536229D-02
  0.27233876D-02  0.16681830D-03  0.53119019D-03  0.29052903D-03 -0.69277086D-03
 -0.14323167D-02  0.21250876D-02 -0.11530382D-02  0.11376809D-02 -0.42171374D-02
  0.14451769D-03 -0.23147688D-03  0.86959191D-04 -0.82040843D-04  0.61467576D-04
  0.50128039D-05
END DATA
 TOTAL ENERGY =    -76.466195734020 THE VIRIAL(-V/T)=   2.00599447
