 70
GAUSSIAN              5 MOL ORBITALS    126 PRIMITIVES        3 NUCLEI   B3LYP   B3LYP   B3LYP
  O    1    (CENTRE  1)  -0.09448631  0.00000000  0.00815606  CHARGE =  8.0
  H    2    (CENTRE  2)   0.00000000 -1.44255835 -1.09730160  CHARGE =  1.0
  H    3    (CENTRE  3)   0.00000000  1.53704465 -1.09730160  CHARGE =  1.0
CENTRE ASSIGNMENTS    1  1  1  1  1  1  1  1  1  1  1  1  1  1  1  1  1  1  1  1
CENTRE ASSIGNMENTS    1  1  1  1  1  1  1  1  1  1  1  1  1  1  1  1  1  1  1  1
CENTRE ASSIGNMENTS    1  1  1  1  1  1  1  1  1  1  1  1  1  1  1  1  1  1  1  1
CENTRE ASSIGNMENTS    1  1  1  1  1  1  1  1  1  1  1  1  2  2  2  2  2  2  2  2
CENTRE ASSIGNMENTS    2  2  2  2  2  2  2  2  2  2  2  2  2  2  2  2  2  2  2  3
CENTRE ASSIGNMENTS    3  3  3  3  3  3  3  3  3  3  3  3  3  3  3  3  3  3  3  3
CENTRE ASSIGNMENTS    3  3  3  3  3  3
TYPE ASSIGNMENTS      1  1  1  1  1  1  1  1  1  1  1  1  1  1  1  1  2  2  2  3
TYPE ASSIGNMENTS      3  3  4  4  4  2  3  4  2  3  4  2  3  4  5  6  7  8  9 10
TYPE ASSIGNMENTS      5  6  7  8  9 10  5  6  7  8  9 10 11 12 13 17 14 15 18 19
TYPE ASSIGNMENTS     16 20 11 12 13 17 14 15 18 19 16 20  1  1  1  1  1  1  2  3
TYPE ASSIGNMENTS      4  2  3  4  2  3  4  5  6  7  8  9 10  5  6  7  8  9 10  1
TYPE ASSIGNMENTS      1  1  1  1  1  2  3  4  2  3  4  2  3  4  5  6  7  8  9 10
TYPE ASSIGNMENTS      5  6  7  8  9 10
EXPONENTS  0.1533000D+05 0.2299000D+04 0.5224000D+03 0.1473000D+03 0.4755000D+02
EXPONENTS  0.1676000D+02 0.6207000D+01 0.5224000D+03 0.1473000D+03 0.4755000D+02
EXPONENTS  0.1676000D+02 0.6207000D+01 0.6882000D+00 0.1752000D+01 0.2384000D+00
EXPONENTS  0.7376000D-01 0.3446000D+02 0.7749000D+01 0.2280000D+01 0.3446000D+02
EXPONENTS  0.7749000D+01 0.2280000D+01 0.3446000D+02 0.7749000D+01 0.2280000D+01
EXPONENTS  0.7156000D+00 0.7156000D+00 0.7156000D+00 0.2140000D+00 0.2140000D+00
EXPONENTS  0.2140000D+00 0.5974000D-01 0.5974000D-01 0.5974000D-01 0.2314000D+01
EXPONENTS  0.2314000D+01 0.2314000D+01 0.2314000D+01 0.2314000D+01 0.2314000D+01
EXPONENTS  0.6450000D+00 0.6450000D+00 0.6450000D+00 0.6450000D+00 0.6450000D+00
EXPONENTS  0.6450000D+00 0.2140000D+00 0.2140000D+00 0.2140000D+00 0.2140000D+00
EXPONENTS  0.2140000D+00 0.2140000D+00 0.1428000D+01 0.1428000D+01 0.1428000D+01
EXPONENTS  0.1428000D+01 0.1428000D+01 0.1428000D+01 0.1428000D+01 0.1428000D+01
EXPONENTS  0.1428000D+01 0.1428000D+01 0.5000000D+00 0.5000000D+00 0.5000000D+00
EXPONENTS  0.5000000D+00 0.5000000D+00 0.5000000D+00 0.5000000D+00 0.5000000D+00
EXPONENTS  0.5000000D+00 0.5000000D+00 0.3387000D+02 0.5095000D+01 0.1159000D+01
EXPONENTS  0.3258000D+00 0.1027000D+00 0.2526000D-01 0.1407000D+01 0.1407000D+01
EXPONENTS  0.1407000D+01 0.3880000D+00 0.3880000D+00 0.3880000D+00 0.1020000D+00
EXPONENTS  0.1020000D+00 0.1020000D+00 0.1057000D+01 0.1057000D+01 0.1057000D+01
EXPONENTS  0.1057000D+01 0.1057000D+01 0.1057000D+01 0.2470000D+00 0.2470000D+00
EXPONENTS  0.2470000D+00 0.2470000D+00 0.2470000D+00 0.2470000D+00 0.3387000D+02
EXPONENTS  0.5095000D+01 0.1159000D+01 0.3258000D+00 0.1027000D+00 0.2526000D-01
EXPONENTS  0.1407000D+01 0.1407000D+01 0.1407000D+01 0.3880000D+00 0.3880000D+00
EXPONENTS  0.3880000D+00 0.1020000D+00 0.1020000D+00 0.1020000D+00 0.1057000D+01
EXPONENTS  0.1057000D+01 0.1057000D+01 0.1057000D+01 0.1057000D+01 0.1057000D+01
EXPONENTS  0.2470000D+00 0.2470000D+00 0.2470000D+00 0.2470000D+00 0.2470000D+00
EXPONENTS  0.2470000D+00
MO    1     MO 0.0        OCC NO =    2.0000000  ORB. ENERGY =    0.000000
 -0.31863722D-02 -0.59388738D-02 -0.10070195D-01 -0.15240169D-01 -0.19010910D-01
 -0.16314189D-01 -0.62474678D-02 -0.10654260D-03 -0.11431322D-02 -0.42138006D-02
 -0.12320906D-01 -0.14847291D-01  0.17885135D-01  0.99008189D-02  0.15303246D-01
  0.17678217D-02  0.56826651D-01  0.55102736D-01  0.37171980D-01  0.14444968D+01
  0.14006760D+01  0.94488777D+00  0.22991457D+00  0.22293980D+00  0.15039387D+00
  0.13249091D-01  0.30296347D+00  0.47125972D-01  0.24490793D-02  0.29902310D-01
  0.48610802D-02  0.84778465D-04  0.31696630D-03  0.99629103D-04  0.51092080D-02
  0.12836163D-02 -0.63928243D-02  0.11308956D-01 -0.10653614D-02 -0.13345540D+00
 -0.95545652D-04  0.18839064D-02 -0.17883608D-02  0.16969780D-02 -0.51888781D-03
 -0.19642480D-01 -0.26507005D-03  0.32002581D-03 -0.54955767D-04 -0.47464352D-04
 -0.93722112D-04  0.63380691D-03 -0.29922792D-03  0.69511609D-02  0.40960347D-03
  0.92051403D-03 -0.16186300D-01 -0.18185074D-02 -0.22830282D-04 -0.46671831D-02
  0.58969703D-03 -0.19402115D-02 -0.32863229D-04  0.15001340D-03  0.16980628D-03
  0.89403125D-04 -0.10360213D-02  0.14491451D-03  0.91865629D-05  0.58598108D-03
 -0.65433335D-03 -0.30223875D-03 -0.39890609D-01 -0.71944356D-01 -0.10608191D+00
 -0.75348041D-01 -0.93519687D-02  0.10490602D-03  0.33192434D-02 -0.22785599D-01
 -0.26421279D-01  0.14918088D-02 -0.87561793D-02 -0.10674341D-01  0.91028194D-04
  0.31850232D-03 -0.14876738D-04  0.71784519D-02 -0.42439603D-02 -0.29344917D-02
  0.23290807D-02  0.21428016D-02 -0.21056906D-01  0.40383889D-04  0.17843232D-03
 -0.21881621D-03  0.94032378D-04  0.80658447D-04 -0.45394618D-03  0.34038773D-01
  0.61390330D-01  0.90520005D-01  0.58980874D-01  0.68546009D-02 -0.15393299D-03
 -0.11099869D-02 -0.16628136D-01  0.24297610D-01 -0.32070235D-03 -0.53102027D-02
  0.99586200D-02  0.57635907D-04  0.34205141D-03  0.31239458D-03 -0.57854725D-02
  0.27069509D-02  0.30785216D-02  0.10014662D-02 -0.11707244D-02 -0.17577442D-01
 -0.90749228D-04 -0.13956484D-03  0.23031406D-03  0.22042941D-04 -0.26310953D-04
 -0.84982201D-03
MO    2     MO 0.0        OCC NO =    2.0000000  ORB. ENERGY =    0.000000
 -0.12367257D+00 -0.23050534D+00 -0.39085420D+00 -0.59151627D+00 -0.73786992D+00
 -0.63320217D+00 -0.24248279D+00 -0.43348704D-03 -0.46510314D-02 -0.17144578D-01
 -0.50129739D-01 -0.60408773D-01  0.72768769D-01  0.29234766D-01 -0.22170863D-01
 -0.67032796D-02  0.67204233D+00  0.65165500D+00  0.43960261D+00  0.12006248D+00
  0.11642022D+00  0.78536391D-01 -0.12888640D+01 -0.12497646D+01 -0.84308380D+00
  0.15106353D+00  0.28300561D-01 -0.28230336D+00  0.23928116D-01  0.41204031D-02
 -0.33724538D-01  0.74101826D-03  0.50713689D-04 -0.65049577D-03 -0.38878377D-01
  0.75080490D-02  0.31370328D-01 -0.78348359D-04 -0.34480008D-01 -0.75025400D-02
 -0.60985668D-02 -0.36057710D-02  0.97043378D-02  0.41788290D-03 -0.86746582D-02
 -0.33278558D-02  0.58695077D-03 -0.11213753D-02  0.53442453D-03  0.87055206D-04
 -0.41346659D-03 -0.44602207D-03 -0.46890506D-02  0.98230045D-03  0.12225089D-04
  0.84450438D-02 -0.22857227D-02  0.15312616D-01  0.56221079D-02 -0.66117863D-03
 -0.15349291D-01  0.44480993D-04 -0.18354564D-03 -0.10677092D-03 -0.50792643D-03
  0.14732282D-03 -0.22203422D-03  0.37222251D-03  0.40331411D-03  0.54234698D-03
  0.11515568D-02 -0.30012067D-03  0.26977488D-01  0.48655011D-01  0.71741785D-01
  0.48716076D-01  0.69534818D-02  0.92080513D-04  0.74607295D-02  0.27765767D-01
  0.39102248D-02  0.42348488D-02  0.11606777D-01  0.26596627D-03  0.73246433D-03
  0.24713792D-03 -0.85164025D-03 -0.40632997D-02  0.69521086D-02 -0.28888089D-02
  0.31099454D-02  0.27466141D-02  0.91044782D-02 -0.13578953D-03  0.31486398D-03
 -0.17907446D-03  0.43689887D-03  0.27196053D-03 -0.35745240D-03  0.31344601D-01
  0.56531279D-01  0.83355337D-01  0.55399428D-01  0.85940295D-02  0.82579308D-04
  0.66333404D-02 -0.26807782D-01  0.54873504D-02  0.37746440D-02 -0.11669889D-01
  0.14452732D-02  0.68329828D-03 -0.24314825D-03 -0.74855429D-03 -0.42471132D-02
  0.66310964D-02 -0.23839831D-02 -0.29005377D-02  0.22925572D-02 -0.91379612D-02
 -0.26116468D-03  0.32875387D-03 -0.67589191D-04 -0.37180972D-03  0.17967748D-03
  0.75029479D-05
MO    3     MO 0.0        OCC NO =    2.0000000  ORB. ENERGY =    0.000000
  0.30486090D-01  0.56821058D-01  0.96348089D-01  0.14581259D+00  0.18188971D+00
  0.15608843D+00  0.59773577D-01 -0.30197424D-03 -0.32399855D-02 -0.11943196D-01
 -0.34921206D-01 -0.42081751D-01  0.50691929D-01  0.35142573D-01  0.33368965D-01
  0.44321867D-02  0.15842207D+01  0.15361612D+01  0.10362853D+01 -0.13480113D+00
 -0.13071175D+00 -0.88177376D-01  0.72044430D+00  0.69858862D+00  0.47126376D+00
  0.35832507D+00 -0.29125606D-01  0.15769152D+00  0.59785740D-01 -0.32994078D-02
  0.21751642D-01  0.19650270D-02 -0.38547361D-04  0.49894736D-03  0.17132161D-01
  0.29160366D-02 -0.20048198D-01 -0.30762071D-02 -0.59157226D-01  0.11344716D-01
  0.26539077D-02  0.30983066D-02 -0.57522143D-02  0.19566323D-03 -0.15990726D-01
  0.22809461D-02 -0.14345642D-03  0.48955900D-03 -0.34610258D-03  0.13301237D-03
 -0.12029214D-02  0.12010553D-03 -0.90211317D-02 -0.73956057D-03  0.14525106D-02
  0.20456690D-01  0.16618416D-02 -0.94614302D-02  0.66067054D-02  0.55684015D-03
  0.51038984D-02  0.11404587D-02 -0.41243969D-03  0.28726336D-04  0.21506436D-03
  0.74708427D-03  0.15328997D-03 -0.32909067D-03  0.49023480D-03 -0.23946897D-03
 -0.31610241D-03 -0.42583528D-03 -0.40318431D-02 -0.72715950D-02 -0.10721963D-01
 -0.13410276D-01 -0.35034177D-02 -0.74149672D-04  0.22229427D-01 -0.50037322D-02
  0.70536634D-02  0.12258126D-01 -0.42491698D-02  0.24819937D-02  0.18856672D-02
 -0.24904879D-03  0.54638487D-03 -0.10285467D-03 -0.24227087D-02  0.25255634D-02
  0.11342656D-01  0.81845566D-02  0.53182905D-03  0.89377482D-05 -0.17961655D-03
  0.17067880D-03  0.11681875D-02  0.74696124D-03  0.25929821D-03 -0.10549973D-01
 -0.19027311D-01 -0.28055759D-01 -0.24295813D-01 -0.50962455D-02 -0.54716618D-04
  0.20581821D-01  0.74169076D-02  0.25952158D-02  0.11360968D-01  0.51731397D-02
  0.66376530D-03  0.17731271D-02  0.21117528D-03  0.47906476D-03  0.95690532D-03
 -0.27999267D-02  0.18430214D-02 -0.10972880D-01  0.75021532D-02  0.22163045D-02
  0.76076063D-04 -0.17046736D-03  0.94391295D-04 -0.10825276D-02  0.62087903D-03
 -0.54316554D-04
MO    4     MO 0.0        OCC NO =    2.0000000  ORB. ENERGY =    0.000000
  0.43557660D+00  0.81184316D+00  0.13765942D+01  0.20833289D+01  0.25987886D+01
  0.22301472D+01  0.85402791D+00  0.10600047D-02  0.11373154D-01  0.41923589D-01
  0.12258211D+00  0.14771741D+00 -0.17794127D+00 -0.58052288D-01 -0.68258398D-01
 -0.66590420D-02  0.29569766D+00  0.28672726D+00  0.19342451D+00  0.87451808D-01
  0.84798837D-01  0.57204794D-01 -0.57313631D+00 -0.55574943D+00 -0.37490528D+00
  0.66077058D-01  0.17681945D-01 -0.12100684D+00  0.10722596D-01  0.17316993D-02
 -0.17336917D-01  0.32977287D-03  0.16364069D-04 -0.33715982D-03 -0.41088397D-02
 -0.10069227D-01  0.14178067D-01  0.30919260D-03 -0.12975551D-01 -0.73202623D-02
  0.17262499D-02 -0.57409666D-02  0.40147167D-02  0.11812069D-03 -0.30081393D-02
 -0.69618321D-03  0.33943149D-03 -0.56353016D-03  0.22409868D-03  0.20951228D-04
 -0.16568530D-03  0.61911367D-05 -0.17875410D-02  0.40242108D-03 -0.13143345D-02
  0.31008740D-02 -0.59666996D-03  0.35766488D-02  0.22617491D-02 -0.61059328D-03
  0.36635470D-03  0.14452332D-03 -0.43290087D-04 -0.28482545D-04 -0.20700278D-03
  0.32055689D-04  0.21640493D-05 -0.26649704D-03  0.97814573D-04  0.83283587D-04
  0.88750537D-03 -0.87932197D-04 -0.27447799D-02 -0.49503236D-02 -0.72992492D-02
  0.95115029D-02  0.48578832D-02  0.10444074D-03  0.43983718D-02 -0.33785177D-02
 -0.11415914D-01  0.20774872D-02  0.33195562D-02 -0.24351688D-02  0.32158152D-03
  0.34854053D-03 -0.37364348D-03  0.88761945D-03  0.11042200D-02 -0.19918394D-02
  0.20851195D-02  0.17906501D-02 -0.44218908D-02 -0.10757427D-03  0.20000179D-03
 -0.92427515D-04  0.18871785D-03  0.11352577D-03 -0.12054501D-03  0.19074340D-02
  0.34401358D-02  0.50724782D-02  0.17422640D-01  0.61678157D-02  0.10388337D-03
  0.37509597D-02  0.80451685D-03 -0.73994213D-02  0.17912878D-02 -0.44910541D-02
 -0.93293984D-03  0.29796596D-03 -0.39382344D-03 -0.30465963D-03 -0.25708973D-03
  0.17545180D-02 -0.14974283D-02 -0.17158058D-02  0.13610652D-02  0.11623844D-02
 -0.15572433D-03  0.22342033D-03 -0.67695992D-04 -0.16059704D-03  0.78368106D-04
 -0.27669694D-04
MO    5     MO 0.0        OCC NO =    2.0000000  ORB. ENERGY =    0.000000
  0.23082059D+00  0.43021162D+00  0.72948425D+00  0.11039968D+01  0.13771490D+01
  0.11817988D+01  0.45256615D+00 -0.12792926D-02 -0.13725971D-01 -0.50596512D-01
 -0.14794123D+00 -0.17827638D+00  0.21475279D+00  0.15938536D+00  0.70355313D-01
  0.53077076D-02 -0.39499271D+00 -0.38301006D+00 -0.25837632D+00 -0.58687153D-01
 -0.56906797D-01 -0.38388989D-01  0.16574427D+00  0.16071619D+00  0.10841819D+00
 -0.88866158D-01 -0.11820361D-01  0.33152711D-01 -0.14860470D-01 -0.10550915D-02
  0.69757137D-02 -0.47463247D-03 -0.17663596D-04  0.11782995D-03 -0.13259656D-01
  0.17413096D-01 -0.41534409D-02 -0.13899472D-03  0.13600526D-01  0.73354269D-02
 -0.39612081D-02  0.47302425D-02 -0.76903435D-03 -0.12310341D-03  0.34854587D-02
  0.38229203D-03 -0.12251132D-03  0.16032524D-03 -0.37813925D-04 -0.27193371D-04
  0.27185333D-03 -0.69726121D-04  0.19796421D-02 -0.90597717D-04  0.19742073D-02
 -0.40322496D-02  0.58521067D-03  0.34658793D-02 -0.19066766D-02 -0.31341752D-03
 -0.93885012D-02 -0.64957882D-04  0.97258648D-04 -0.21722451D-04 -0.17123453D-03
 -0.20595553D-03 -0.84548248D-04  0.53458019D-04 -0.85820410D-04  0.14971560D-03
  0.46024557D-03  0.73835824D-04  0.12590027D-01  0.22706632D-01  0.33480915D-01
  0.49398706D-02 -0.36128220D-02 -0.95843379D-04 -0.64410059D-02  0.12575544D-01
  0.13545541D-01 -0.30508211D-02 -0.85124455D-03  0.19343735D-02 -0.44830568D-03
 -0.42065593D-03  0.13848998D-04 -0.69263134D-03 -0.35191598D-03  0.10445473D-02
 -0.29468557D-02 -0.22977492D-02  0.36473311D-02  0.11068763D-03 -0.14561622D-03
  0.34928590D-04 -0.26718001D-03 -0.16622911D-03 -0.96447590D-04  0.87247101D-02
  0.15735374D-01  0.23201800D-01 -0.13572627D-03 -0.39728741D-02 -0.78135236D-04
 -0.56925778D-02 -0.10317238D-01  0.10281284D-01 -0.27611945D-02  0.11668161D-02
  0.13954498D-02 -0.42296227D-03  0.36676736D-03  0.37509005D-04 -0.15301911D-03
 -0.63830892D-03  0.79132803D-03  0.26623035D-02 -0.19338604D-02 -0.19556337D-02
  0.93202076D-04 -0.13447558D-03  0.41273500D-04  0.24617017D-03 -0.13544229D-03
  0.62961021D-04
END DATA
 TOTAL ENERGY =    -76.464602682364 THE VIRIAL(-V/T)=   2.00696610
