 70
GAUSSIAN              5 MOL ORBITALS    126 PRIMITIVES        3 NUCLEI   B3LYP   B3LYP   B3LYP
  O    1    (CENTRE  1)   0.09448631  0.00000000  0.00815606  CHARGE =  8.0
  H    2    (CENTRE  2)   0.00000000 -1.44255835 -1.09730160  CHARGE =  1.0
  H    3    (CENTRE  3)   0.00000000  1.34807204 -1.09730160  CHARGE =  1.0
CENTRE ASSIGNMENTS    1  1  1  1  1  1  1  1  1  1  1  1  1  1  1  1  1  1  1  1
CENTRE ASSIGNMENTS    1  1  1  1  1  1  1  1  1  1  1  1  1  1  1  1  1  1  1  1
CENTRE ASSIGNMENTS    1  1  1  1  1  1  1  1  1  1  1  1  1  1  1  1  1  1  1  1
CENTRE ASSIGNMENTS    1  1  1  1  1  1  1  1  1  1  1  1  2  2  2  2  2  2  2  2
CENTRE ASSIGNMENTS    2  2  2  2  2  2  2  2  2  2  2  2  2  2  2  2  2  2  2  3
CENTRE ASSIGNMENTS    3  3  3  3  3  3  3  3  3  3  3  3  3  3  3  3  3  3  3  3
CENTRE ASSIGNMENTS    3  3  3  3  3  3
TYPE ASSIGNMENTS      1  1  1  1  1  1  1  1  1  1  1  1  1  1  1  1  2  2  2  3
TYPE ASSIGNMENTS      3  3  4  4  4  2  3  4  2  3  4  2  3  4  5  6  7  8  9 10
TYPE ASSIGNMENTS      5  6  7  8  9 10  5  6  7  8  9 10 11 12 13 17 14 15 18 19
TYPE ASSIGNMENTS     16 20 11 12 13 17 14 15 18 19 16 20  1  1  1  1  1  1  2  3
TYPE ASSIGNMENTS      4  2  3  4  2  3  4  5  6  7  8  9 10  5  6  7  8  9 10  1
TYPE ASSIGNMENTS      1  1  1  1  1  2  3  4  2  3  4  2  3  4  5  6  7  8  9 10
TYPE ASSIGNMENTS      5  6  7  8  9 10
EXPONENTS  0.1533000D+05 0.2299000D+04 0.5224000D+03 0.1473000D+03 0.4755000D+02
EXPONENTS  0.1676000D+02 0.6207000D+01 0.5224000D+03 0.1473000D+03 0.4755000D+02
EXPONENTS  0.1676000D+02 0.6207000D+01 0.6882000D+00 0.1752000D+01 0.2384000D+00
EXPONENTS  0.7376000D-01 0.3446000D+02 0.7749000D+01 0.2280000D+01 0.3446000D+02
EXPONENTS  0.7749000D+01 0.2280000D+01 0.3446000D+02 0.7749000D+01 0.2280000D+01
EXPONENTS  0.7156000D+00 0.7156000D+00 0.7156000D+00 0.2140000D+00 0.2140000D+00
EXPONENTS  0.2140000D+00 0.5974000D-01 0.5974000D-01 0.5974000D-01 0.2314000D+01
EXPONENTS  0.2314000D+01 0.2314000D+01 0.2314000D+01 0.2314000D+01 0.2314000D+01
EXPONENTS  0.6450000D+00 0.6450000D+00 0.6450000D+00 0.6450000D+00 0.6450000D+00
EXPONENTS  0.6450000D+00 0.2140000D+00 0.2140000D+00 0.2140000D+00 0.2140000D+00
EXPONENTS  0.2140000D+00 0.2140000D+00 0.1428000D+01 0.1428000D+01 0.1428000D+01
EXPONENTS  0.1428000D+01 0.1428000D+01 0.1428000D+01 0.1428000D+01 0.1428000D+01
EXPONENTS  0.1428000D+01 0.1428000D+01 0.5000000D+00 0.5000000D+00 0.5000000D+00
EXPONENTS  0.5000000D+00 0.5000000D+00 0.5000000D+00 0.5000000D+00 0.5000000D+00
EXPONENTS  0.5000000D+00 0.5000000D+00 0.3387000D+02 0.5095000D+01 0.1159000D+01
EXPONENTS  0.3258000D+00 0.1027000D+00 0.2526000D-01 0.1407000D+01 0.1407000D+01
EXPONENTS  0.1407000D+01 0.3880000D+00 0.3880000D+00 0.3880000D+00 0.1020000D+00
EXPONENTS  0.1020000D+00 0.1020000D+00 0.1057000D+01 0.1057000D+01 0.1057000D+01
EXPONENTS  0.1057000D+01 0.1057000D+01 0.1057000D+01 0.2470000D+00 0.2470000D+00
EXPONENTS  0.2470000D+00 0.2470000D+00 0.2470000D+00 0.2470000D+00 0.3387000D+02
EXPONENTS  0.5095000D+01 0.1159000D+01 0.3258000D+00 0.1027000D+00 0.2526000D-01
EXPONENTS  0.1407000D+01 0.1407000D+01 0.1407000D+01 0.3880000D+00 0.3880000D+00
EXPONENTS  0.3880000D+00 0.1020000D+00 0.1020000D+00 0.1020000D+00 0.1057000D+01
EXPONENTS  0.1057000D+01 0.1057000D+01 0.1057000D+01 0.1057000D+01 0.1057000D+01
EXPONENTS  0.2470000D+00 0.2470000D+00 0.2470000D+00 0.2470000D+00 0.2470000D+00
EXPONENTS  0.2470000D+00
MO    1     MO 0.0        OCC NO =    2.0000000  ORB. ENERGY =    0.000000
  0.11848412D+00  0.22083492D+00  0.37445663D+00  0.56670030D+00  0.70691395D+00
  0.60663734D+00  0.23230987D+00 -0.49528582D-03 -0.53140918D-02 -0.19588743D-01
 -0.57276335D-01 -0.69020769D-01  0.83142830D-01  0.65007083D-01 -0.18283170D-01
 -0.54838495D-02  0.39032115D+00  0.37848022D+00  0.25532052D+00 -0.19262771D+00
 -0.18678408D+00 -0.12600344D+00 -0.13029065D+01 -0.12633811D+01 -0.85226939D+00
  0.89066817D-01 -0.42268307D-01 -0.28245898D+00  0.15733232D-01 -0.51636556D-02
 -0.32061319D-01  0.52851862D-03 -0.59489431D-04 -0.63614866D-03 -0.44601295D-01
  0.69863229D-02  0.37614972D-01  0.18252331D-02 -0.74901666D-02  0.14290840D-01
 -0.65407192D-02 -0.40887914D-02  0.10629511D-01  0.15354974D-03 -0.24141717D-02
  0.39671313D-02  0.73614096D-03 -0.12121892D-02  0.47604821D-03 -0.16246948D-04
 -0.37819834D-03  0.33683784D-03 -0.14850379D-02 -0.12042304D-02 -0.10909309D-02
  0.48477840D-02  0.24103037D-02  0.18385833D-01 -0.39267018D-03  0.12023876D-02
 -0.15113041D-01 -0.42385993D-03 -0.83930474D-04  0.11913479D-03 -0.70003325D-03
  0.28690218D-03  0.29876877D-03 -0.75672144D-05 -0.35110754D-04 -0.65617315D-03
  0.21076670D-02  0.57211929D-05  0.34058794D-01  0.61426437D-01  0.90573246D-01
  0.58737292D-01  0.71965304D-02  0.44361580D-04  0.76971416D-02  0.30640998D-01
  0.89489381D-02  0.38983418D-02  0.11244935D-01  0.17306857D-02  0.50021875D-03
 -0.21771908D-04 -0.89593202D-03 -0.44727503D-02  0.66784943D-02 -0.22057440D-02
  0.43158088D-02  0.29311630D-02  0.10228292D-01 -0.52059824D-04  0.86049921D-04
 -0.33990097D-04  0.32476985D-03  0.22006430D-03 -0.37873742D-03  0.26169617D-01
  0.47197981D-01  0.69593396D-01  0.44410266D-01  0.46292365D-02  0.62096571D-04
  0.79535599D-02 -0.29074784D-01  0.40437527D-02  0.40069606D-02 -0.97270506D-02
 -0.11661042D-02  0.52446686D-03  0.38517105D-04 -0.10549559D-02 -0.30947414D-02
  0.63156878D-02 -0.32209463D-02 -0.42340595D-02  0.28825386D-02 -0.68805012D-02
  0.97775982D-04  0.76362168D-04 -0.17413815D-03 -0.31612191D-03  0.22001504D-03
  0.83802273D-03
MO    2     MO 0.0        OCC NO =    2.0000000  ORB. ENERGY =    0.000000
 -0.25977504D+00 -0.48417795D+00 -0.82099176D+00 -0.12424837D+01 -0.15499005D+01
 -0.13300452D+01 -0.50933666D+00 -0.22050010D-03 -0.23658214D-02 -0.87208632D-02
 -0.25499293D-01 -0.30727887D-01  0.37014997D-01 -0.71738582D-02 -0.83844987D-02
 -0.19717968D-02 -0.12787670D+00 -0.12399738D+00 -0.83647900D-01  0.12060908D+01
  0.11695024D+01  0.78893939D+00 -0.40875585D+00 -0.39635568D+00 -0.26737920D+00
 -0.28317040D-01  0.24473449D+00 -0.85928668D-01 -0.41051129D-02  0.21461293D-01
 -0.79892657D-02 -0.12043817D-03  0.19105952D-03 -0.14573895D-03 -0.12494994D-01
  0.54478080D-03  0.11950214D-01 -0.98760622D-02  0.82203811D-02 -0.11425274D+00
 -0.14890543D-02 -0.17500091D-02  0.32390634D-02 -0.10057390D-02  0.18091375D-02
 -0.12167177D-01  0.40014106D-03 -0.46938058D-03  0.69239527D-04  0.12306991D-03
  0.47430189D-05  0.13428633D-02  0.94010318D-03  0.53897068D-02 -0.52056181D-03
 -0.13670180D-02 -0.10751868D-01  0.42488435D-02 -0.14532915D-02 -0.54172530D-02
 -0.26871581D-02  0.95898454D-03  0.13104919D-04  0.12205844D-03 -0.23071365D-03
  0.42136415D-04 -0.47826953D-03 -0.31879589D-04 -0.81451171D-04  0.11209420D-03
  0.72402054D-03  0.70214213D-04 -0.21139057D-01 -0.38125159D-01 -0.56215525D-01
 -0.40796735D-01 -0.53186243D-02  0.10361254D-03 -0.30141536D-02 -0.77107108D-02
 -0.20240053D-01 -0.14411681D-02 -0.30367624D-02 -0.87306353D-02 -0.14509446D-03
  0.12434282D-03 -0.44772039D-03  0.40945073D-02 -0.55859248D-03 -0.35359148D-02
 -0.17977590D-02 -0.17847472D-02 -0.13571437D-01  0.70951736D-04  0.76026324D-04
 -0.14697806D-03 -0.12329865D-03 -0.77741643D-04 -0.66899288D-03  0.41919040D-01
  0.75602716D-01  0.11147616D+00  0.78680731D-01  0.89657743D-02 -0.66574163D-04
  0.12118014D-02 -0.30104546D-01  0.30666531D-01  0.18048456D-03 -0.10714930D-01
  0.11012549D-01 -0.12362370D-03  0.21777351D-03 -0.11407836D-03 -0.86623421D-02
  0.53888784D-02  0.32734637D-02 -0.14793275D-02  0.15173713D-02 -0.25208772D-01
  0.28446591D-04 -0.14736304D-03  0.11891645D-03  0.68883109D-04 -0.33820102D-04
 -0.34907550D-04
MO    3     MO 0.0        OCC NO =    2.0000000  ORB. ENERGY =    0.000000
  0.38981461D+00  0.72655033D+00  0.12319682D+01  0.18644528D+01  0.23257580D+01
  0.19958463D+01  0.76430312D+00  0.92414424D-03  0.99154612D-02  0.36550257D-01
  0.10687081D+00  0.12878452D+00 -0.15513460D+00 -0.49206049D-01 -0.45904603D-01
 -0.31934944D-02  0.27740334D+00  0.26898792D+00  0.18145766D+00  0.74820915D+00
  0.72551119D+00  0.48942556D+00 -0.12385719D+00 -0.12009981D+00 -0.81018621D-01
  0.62938126D-01  0.15456073D+00 -0.23973617D-01  0.10168623D-01  0.14408823D-01
 -0.51008891D-02  0.32581676D-03  0.14055081D-03 -0.10282475D-03  0.59325417D-02
 -0.97073930D-02  0.37748513D-02 -0.56998753D-02 -0.12800255D-01 -0.70743298D-01
  0.24265390D-02 -0.29598568D-02  0.53331781D-03 -0.89175710D-03 -0.34090847D-02
 -0.91865243D-02  0.93036435D-04 -0.92717293D-04 -0.31914252D-06  0.22032019D-04
 -0.20742003D-03  0.56086652D-03 -0.17936310D-02  0.34747901D-02 -0.82244577D-03
  0.37603114D-02 -0.76045201D-02 -0.29682833D-03  0.16205816D-02 -0.28198502D-02
  0.27641656D-02  0.70000752D-03 -0.72519227D-04  0.43549860D-04  0.11181693D-05
  0.84852894D-04 -0.41272384D-03 -0.27936790D-03  0.13270479D-03  0.28207426D-03
  0.27601339D-03  0.21740099D-03 -0.27707032D-01 -0.49970773D-01 -0.73681875D-01
 -0.39792181D-01 -0.24030294D-02  0.11253154D-03  0.19617570D-02 -0.20062548D-01
 -0.23606202D-01  0.14960359D-02 -0.43297246D-02 -0.76858254D-02  0.31449096D-03
  0.31195264D-03 -0.19455781D-03  0.54066853D-02 -0.27284865D-02 -0.26781988D-02
  0.57104458D-03  0.66321424D-04 -0.16433067D-01  0.17760744D-04  0.12533767D-03
 -0.14309841D-03  0.17699872D-03  0.96808643D-04 -0.32830507D-03  0.10288343D-01
  0.18555450D-01  0.27360000D-01  0.31319348D-01  0.59961333D-02 -0.10104690D-04
  0.48076472D-02 -0.66614030D-03  0.51523012D-02  0.26783179D-02 -0.31084454D-02
  0.37526565D-02  0.35119441D-03 -0.58299273D-05 -0.18828996D-04 -0.15733316D-02
  0.37578155D-03  0.11975501D-02 -0.24938105D-02  0.21443849D-02 -0.46877258D-02
 -0.23376247D-04 -0.40648775D-04  0.64025022D-04 -0.23658720D-03  0.16824993D-03
 -0.16431198D-03
MO    4     MO 0.0        OCC NO =    2.0000000  ORB. ENERGY =    0.000000
 -0.73236297D-01 -0.13650042D+00 -0.23145564D+00 -0.35028349D+00 -0.43695105D+00
 -0.37496901D+00 -0.14359321D+00 -0.46114434D-03 -0.49477761D-02 -0.18238434D-01
 -0.53328113D-01 -0.64262969D-01  0.77411556D-01  0.39049678D-01  0.42186841D-01
  0.48502499D-02  0.16491108D+01  0.15990828D+01  0.10787318D+01  0.11916154D+00
  0.11554661D+00  0.77947060D-01  0.47413871D+00  0.45975506D+00  0.31014805D+00
  0.37157808D+00  0.24819314D-01  0.10047707D+00  0.60238068D-01  0.26018519D-02
  0.11760725D-01  0.18824626D-02  0.28650476D-04  0.15800636D-03  0.57128844D-02
  0.54244486D-02 -0.11137333D-01  0.10423575D-02 -0.72314158D-01 -0.10458867D-01
 -0.58904882D-03  0.36875056D-02 -0.30984568D-02 -0.72292081D-03 -0.17653230D-01
 -0.14956740D-02 -0.41658380D-03  0.53314043D-03 -0.11655662D-03 -0.14635590D-03
 -0.10171597D-02 -0.21839450D-04 -0.10038911D-01  0.58219748D-03  0.42118863D-03
  0.19733701D-01 -0.12249784D-02 -0.18219731D-02  0.10383033D-01 -0.52161408D-03
  0.55840717D-03 -0.57179685D-03 -0.25759717D-03 -0.33913312D-04  0.13960394D-03
  0.29414704D-03 -0.20103476D-04  0.14229755D-03  0.47864446D-03  0.12184341D-03
 -0.56110938D-03  0.57020516D-03 -0.92087823D-02 -0.16608418D-01 -0.24489103D-01
 -0.24262842D-01 -0.49833139D-02 -0.57670719D-04  0.22237051D-01 -0.70514966D-02
  0.11489997D-03  0.11937813D-01 -0.52186991D-02 -0.10261217D-02  0.18684557D-02
 -0.17871677D-03  0.22316278D-03  0.21683534D-02 -0.28212943D-02  0.65294093D-03
  0.10729174D-01  0.78859041D-02 -0.35798532D-02  0.13350019D-03 -0.10833012D-03
 -0.25170065D-04  0.11446572D-02  0.66820821D-03 -0.55553156D-05 -0.34204031D-02
 -0.61688378D-02 -0.90959477D-02 -0.14114280D-01 -0.34358437D-02 -0.68788753D-04
  0.24781106D-01  0.45702632D-02  0.45337672D-02  0.13231220D-01  0.40492595D-02
  0.74070240D-03  0.19950892D-02  0.16710305D-03  0.28598573D-03  0.11302650D-02
 -0.23950505D-02  0.12647855D-02 -0.11650894D-01  0.93355303D-02  0.46576347D-03
  0.92457585D-04 -0.10275361D-03  0.10296025D-04 -0.12572927D-02  0.84142618D-03
 -0.16545066D-03
MO    5     MO 0.0        OCC NO =    2.0000000  ORB. ENERGY =    0.000000
  0.14308621D+00  0.26668916D+00  0.45220895D+00  0.68437016D+00  0.85369783D+00
  0.73259975D+00  0.28054679D+00 -0.12900912D-02 -0.13841832D-01 -0.51023598D-01
 -0.14919001D+00 -0.17978121D+00  0.21656552D+00  0.15020595D+00  0.84790359D-01
  0.79092000D-02 -0.48503123D+00 -0.47031714D+00 -0.31727316D+00  0.36381069D+00
  0.35277399D+00  0.23797925D+00  0.70641341D+00  0.68498338D+00  0.46208574D+00
 -0.11009800D+00  0.74228418D-01  0.15184407D+00 -0.18172288D-01  0.68744545D-02
  0.22361836D-01 -0.59648778D-03  0.71378276D-04  0.43530348D-03  0.24402464D-02
  0.17205975D-01 -0.19646221D-01 -0.36458468D-02  0.19733715D-01 -0.34981611D-01
 -0.91769304D-03  0.58492164D-02 -0.49315233D-02 -0.11670087D-03  0.51477190D-02
 -0.37247581D-02 -0.24127699D-03  0.48861257D-03 -0.24733558D-03  0.71862145D-04
  0.36135528D-03  0.26782969D-03  0.29752329D-02  0.15252045D-02  0.28226038D-02
 -0.70323343D-02 -0.33633238D-02 -0.42787031D-02 -0.18933644D-02 -0.12122898D-02
 -0.41891085D-02  0.60528217D-03  0.69466107D-04  0.11805560D-04 -0.52898280D-04
 -0.80723082D-04 -0.88938706D-04 -0.25433970D-03 -0.12767524D-03  0.53522025D-04
  0.41303455D-03 -0.16047777D-03 -0.68591835D-02 -0.12370820D-01 -0.18240767D-01
 -0.31583929D-01 -0.84395913D-02 -0.87556387D-04 -0.69812207D-02 -0.18915878D-02
  0.64958534D-02 -0.40988980D-02 -0.68137597D-02 -0.25078079D-03 -0.59419793D-03
 -0.40391805D-03  0.38454255D-03  0.19303944D-02 -0.35218751D-02  0.15914806D-02
 -0.40893869D-02 -0.28206617D-02 -0.40679549D-02  0.12945075D-03 -0.18742126D-03
  0.57970509D-04 -0.39401079D-03 -0.24816643D-03 -0.67048900D-04  0.12273070D-01
  0.22134987D-01  0.32638026D-01  0.23603637D-02 -0.42369293D-02 -0.13978546D-03
 -0.63731527D-02 -0.84878535D-02  0.22203858D-01 -0.40093282D-02  0.31765101D-02
  0.53280968D-02 -0.62568142D-03  0.48879627D-03  0.49746731D-03 -0.17340654D-02
 -0.19727641D-02  0.37068295D-02  0.33838170D-02 -0.22204880D-02 -0.67860929D-02
  0.82453501D-04 -0.22952137D-03  0.14706787D-03  0.40567662D-03 -0.27896980D-03
 -0.18564392D-03
END DATA
 TOTAL ENERGY =    -76.464513966748 THE VIRIAL(-V/T)=   2.00490221
