 70
GAUSSIAN              5 MOL ORBITALS    126 PRIMITIVES        3 NUCLEI   B3LYP   B3LYP   B3LYP
  O    1    (CENTRE  1)  -0.09448631  0.00000000  0.00815606  CHARGE =  8.0
  H    2    (CENTRE  2)   0.00000000 -1.44255835 -1.09730160  CHARGE =  1.0
  H    3    (CENTRE  3)   0.00000000  1.34807204 -1.09730160  CHARGE =  1.0
CENTRE ASSIGNMENTS    1  1  1  1  1  1  1  1  1  1  1  1  1  1  1  1  1  1  1  1
CENTRE ASSIGNMENTS    1  1  1  1  1  1  1  1  1  1  1  1  1  1  1  1  1  1  1  1
CENTRE ASSIGNMENTS    1  1  1  1  1  1  1  1  1  1  1  1  1  1  1  1  1  1  1  1
CENTRE ASSIGNMENTS    1  1  1  1  1  1  1  1  1  1  1  1  2  2  2  2  2  2  2  2
CENTRE ASSIGNMENTS    2  2  2  2  2  2  2  2  2  2  2  2  2  2  2  2  2  2  2  3
CENTRE ASSIGNMENTS    3  3  3  3  3  3  3  3  3  3  3  3  3  3  3  3  3  3  3  3
CENTRE ASSIGNMENTS    3  3  3  3  3  3
TYPE ASSIGNMENTS      1  1  1  1  1  1  1  1  1  1  1  1  1  1  1  1  2  2  2  3
TYPE ASSIGNMENTS      3  3  4  4  4  2  3  4  2  3  4  2  3  4  5  6  7  8  9 10
TYPE ASSIGNMENTS      5  6  7  8  9 10  5  6  7  8  9 10 11 12 13 17 14 15 18 19
TYPE ASSIGNMENTS     16 20 11 12 13 17 14 15 18 19 16 20  1  1  1  1  1  1  2  3
TYPE ASSIGNMENTS      4  2  3  4  2  3  4  5  6  7  8  9 10  5  6  7  8  9 10  1
TYPE ASSIGNMENTS      1  1  1  1  1  2  3  4  2  3  4  2  3  4  5  6  7  8  9 10
TYPE ASSIGNMENTS      5  6  7  8  9 10
EXPONENTS  0.1533000D+05 0.2299000D+04 0.5224000D+03 0.1473000D+03 0.4755000D+02
EXPONENTS  0.1676000D+02 0.6207000D+01 0.5224000D+03 0.1473000D+03 0.4755000D+02
EXPONENTS  0.1676000D+02 0.6207000D+01 0.6882000D+00 0.1752000D+01 0.2384000D+00
EXPONENTS  0.7376000D-01 0.3446000D+02 0.7749000D+01 0.2280000D+01 0.3446000D+02
EXPONENTS  0.7749000D+01 0.2280000D+01 0.3446000D+02 0.7749000D+01 0.2280000D+01
EXPONENTS  0.7156000D+00 0.7156000D+00 0.7156000D+00 0.2140000D+00 0.2140000D+00
EXPONENTS  0.2140000D+00 0.5974000D-01 0.5974000D-01 0.5974000D-01 0.2314000D+01
EXPONENTS  0.2314000D+01 0.2314000D+01 0.2314000D+01 0.2314000D+01 0.2314000D+01
EXPONENTS  0.6450000D+00 0.6450000D+00 0.6450000D+00 0.6450000D+00 0.6450000D+00
EXPONENTS  0.6450000D+00 0.2140000D+00 0.2140000D+00 0.2140000D+00 0.2140000D+00
EXPONENTS  0.2140000D+00 0.2140000D+00 0.1428000D+01 0.1428000D+01 0.1428000D+01
EXPONENTS  0.1428000D+01 0.1428000D+01 0.1428000D+01 0.1428000D+01 0.1428000D+01
EXPONENTS  0.1428000D+01 0.1428000D+01 0.5000000D+00 0.5000000D+00 0.5000000D+00
EXPONENTS  0.5000000D+00 0.5000000D+00 0.5000000D+00 0.5000000D+00 0.5000000D+00
EXPONENTS  0.5000000D+00 0.5000000D+00 0.3387000D+02 0.5095000D+01 0.1159000D+01
EXPONENTS  0.3258000D+00 0.1027000D+00 0.2526000D-01 0.1407000D+01 0.1407000D+01
EXPONENTS  0.1407000D+01 0.3880000D+00 0.3880000D+00 0.3880000D+00 0.1020000D+00
EXPONENTS  0.1020000D+00 0.1020000D+00 0.1057000D+01 0.1057000D+01 0.1057000D+01
EXPONENTS  0.1057000D+01 0.1057000D+01 0.1057000D+01 0.2470000D+00 0.2470000D+00
EXPONENTS  0.2470000D+00 0.2470000D+00 0.2470000D+00 0.2470000D+00 0.3387000D+02
EXPONENTS  0.5095000D+01 0.1159000D+01 0.3258000D+00 0.1027000D+00 0.2526000D-01
EXPONENTS  0.1407000D+01 0.1407000D+01 0.1407000D+01 0.3880000D+00 0.3880000D+00
EXPONENTS  0.3880000D+00 0.1020000D+00 0.1020000D+00 0.1020000D+00 0.1057000D+01
EXPONENTS  0.1057000D+01 0.1057000D+01 0.1057000D+01 0.1057000D+01 0.1057000D+01
EXPONENTS  0.2470000D+00 0.2470000D+00 0.2470000D+00 0.2470000D+00 0.2470000D+00
EXPONENTS  0.2470000D+00
MO    1     MO 0.0        OCC NO =    2.0000000  ORB. ENERGY =    0.000000
 -0.13575247D+00 -0.25302029D+00 -0.42903146D+00 -0.64929349D+00 -0.80994246D+00
 -0.69505113D+00 -0.26616766D+00 -0.27505359D-04 -0.29511445D-03 -0.10878474D-02
 -0.31808021D-02 -0.38330212D-02  0.46172802D-02 -0.12414266D-01 -0.71675346D-02
 -0.85927702D-03  0.25145284D-01  0.24382467D-01  0.16448268D-01  0.14233757D+01
  0.13801957D+01  0.93107184D+00 -0.12851666D+00 -0.12461793D+00 -0.84066518D-01
  0.53146839D-02  0.29017203D+00 -0.24793311D-01  0.63399308D-03  0.25972790D-01
 -0.13171486D-02  0.18235458D-04  0.23819533D-03 -0.20866228D-04 -0.29565349D-02
 -0.12104559D-02  0.41669909D-02  0.11488510D-01 -0.18378082D-02 -0.13422758D+00
  0.11588536D-03 -0.10734053D-02  0.95751996D-03  0.12904429D-02 -0.29650901D-03
 -0.15156960D-01  0.24334630D-03 -0.20695765D-03 -0.36388649D-04 -0.12095803D-03
  0.38776067D-04  0.14011026D-02 -0.14915456D-03  0.64415579D-02 -0.25800039D-03
  0.16809836D-03 -0.13087052D-01  0.71321068D-03  0.27936532D-03 -0.62376216D-02
  0.60790498D-04 -0.11858798D-02  0.84988807D-05  0.10902462D-03 -0.11168379D-03
 -0.36488734D-04 -0.62272301D-03 -0.12697689D-03  0.10992092D-04  0.29564915D-03
  0.46202825D-03 -0.15344474D-03 -0.34172825D-01 -0.61632096D-01 -0.90876490D-01
 -0.63248581D-01 -0.79277817D-02  0.11093245D-03  0.24630060D-02 -0.18194236D-01
 -0.26527498D-01  0.10282739D-02 -0.67860447D-02 -0.10790442D-01  0.41414819D-04
  0.15778777D-03 -0.29437461D-03  0.64176005D-02 -0.28373542D-02 -0.35802463D-02
  0.17798307D-02  0.17934281D-02 -0.19684603D-01  0.10178737D-03  0.69175189D-04
 -0.17096256D-03  0.67881342D-04  0.53128661D-04 -0.67687269D-03  0.39583702D-01
  0.71390837D-01  0.10526575D+00  0.75858679D-01  0.88331373D-02 -0.93291828D-04
 -0.25418814D-02 -0.24797925D-01  0.32251197D-01 -0.92544154D-03 -0.89586350D-02
  0.12182833D-01  0.80929391D-05  0.25842608D-03  0.10856015D-03 -0.82335921D-02
  0.38889585D-02  0.43446335D-02  0.20061823D-02 -0.20840747D-02 -0.24673728D-01
  0.20828055D-04 -0.19155561D-03  0.17072755D-03  0.87461269D-05 -0.18318484D-04
 -0.23099837D-03
MO    2     MO 0.0        OCC NO =    2.0000000  ORB. ENERGY =    0.000000
 -0.12139735D+00 -0.22626470D+00 -0.38366360D+00 -0.58063406D+00 -0.72429522D+00
 -0.62155306D+00 -0.23802180D+00  0.39396266D-03  0.42269608D-02  0.15581373D-01
  0.45559022D-01  0.54900837D-01 -0.66133876D-01 -0.55006352D-01  0.69221896D-02
  0.30570492D-02  0.12826953D+01  0.12437830D+01  0.83904863D+00 -0.67511641D-01
 -0.65463582D-01 -0.44161346D-01  0.88952845D+00  0.86254338D+00  0.58186667D+00
  0.29008151D+00 -0.11969674D-01  0.19334926D+00  0.48109612D-01 -0.23698081D-03
  0.22495687D-01  0.15371057D-02  0.41303767D-05  0.48614257D-03  0.32689876D-01
 -0.56449432D-02 -0.27044933D-01  0.85508350D-03 -0.48344451D-01  0.91299114D-02
  0.51574499D-02  0.23629158D-02 -0.75203657D-02 -0.46083000D-03 -0.12363021D-01
 -0.48869307D-03 -0.42278760D-03  0.76616216D-03 -0.34337456D-03 -0.88148097D-04
 -0.91653320D-03 -0.39643933D-03 -0.70980343D-02 -0.79926147D-04  0.10141185D-02
  0.15660127D-01  0.30406727D-03 -0.14365938D-01  0.56339761D-02 -0.64288826D-04
  0.11323583D-01 -0.52161030D-03 -0.22485372D-03 -0.90589783D-04  0.50049440D-03
  0.41499749D-03 -0.14285661D-03 -0.27594291D-04  0.25956367D-03  0.41462596D-03
 -0.14738889D-02  0.36496004D-03 -0.17176508D-01 -0.30978539D-01 -0.45677838D-01
 -0.27814182D-01 -0.30952531D-02 -0.36099466D-04  0.18919199D-01 -0.17138022D-01
 -0.16899986D-02  0.10080469D-01 -0.58534168D-02  0.90165249D-03  0.15034003D-02
  0.23081425D-04  0.68718194D-03  0.14115602D-02 -0.35947279D-02  0.21831677D-02
  0.95784231D-02  0.67485005D-02 -0.30115427D-02 -0.26597211D-04 -0.50887967D-04
  0.77485178D-04  0.93371146D-03  0.56959578D-03  0.39261991D-03 -0.22020506D-01
 -0.39714890D-01 -0.58559583D-01 -0.37020599D-01 -0.36465538D-02 -0.18494274D-04
  0.21139573D-01  0.21750219D-01 -0.62585489D-02  0.11137257D-01  0.68858672D-02
 -0.17338121D-03  0.16008071D-02 -0.96413692D-04  0.74606444D-03  0.23678967D-02
 -0.42174998D-02  0.18496031D-02 -0.10437273D-01  0.79550908D-02  0.65815709D-02
 -0.12053615D-03 -0.90237096D-05  0.12955986D-03 -0.10010459D-02  0.67962084D-03
 -0.57369694D-03
MO    3     MO 0.0        OCC NO =    2.0000000  ORB. ENERGY =    0.000000
  0.42362489D+00  0.78956714D+00  0.13388220D+01  0.20261648D+01  0.25274809D+01
  0.21689546D+01  0.83059440D+00  0.11266665D-02  0.12088392D-01  0.44560091D-01
  0.13029109D+00  0.15700710D+00 -0.18913169D+00 -0.66355098D-01 -0.46634867D-01
 -0.24839061D-02 -0.88309662D-01 -0.85630666D-01 -0.57765942D-01  0.32883165D+00
  0.31885609D+00  0.21509844D+00  0.12131538D+00  0.11763511D+00  0.79355947D-01
 -0.20022766D-01  0.69681725D-01  0.28487114D-01 -0.28832501D-02  0.70688448D-02
  0.15564902D-03 -0.91085148D-04  0.75328227D-04  0.61915546D-05  0.15515955D-01
 -0.11840712D-01 -0.36752433D-02  0.25107464D-02  0.66697441D-02 -0.30468595D-01
  0.38455958D-02 -0.23116882D-02 -0.15339076D-02  0.46690957D-03  0.17606799D-02
 -0.51256295D-02 -0.91345650D-04  0.16050002D-03 -0.69154371D-04  0.26926098D-05
  0.47937204D-04  0.50657967D-04  0.82434938D-03  0.16455839D-02 -0.64158257D-03
 -0.14592703D-02 -0.38865693D-02 -0.39931450D-02 -0.10137778D-02 -0.10501823D-02
  0.59178927D-02 -0.45484980D-03  0.35001996D-04 -0.11997345D-04  0.16802132D-03
  0.50903252D-05 -0.27915301D-03 -0.25058522D-03 -0.11009631D-03  0.31514504D-03
 -0.25347873D-03 -0.12880552D-03 -0.23359162D-01 -0.42129211D-01 -0.62119497D-01
 -0.29523385D-01 -0.74594259D-03  0.77621613D-04  0.43066613D-03 -0.20279049D-01
 -0.17639014D-01 -0.18404223D-03 -0.39299788D-02 -0.46645107D-02 -0.93768161D-04
  0.29809869D-03  0.48561799D-04  0.41568306D-02 -0.29169291D-02 -0.12399015D-02
  0.50715331D-03  0.53456053D-03 -0.12189629D-01 -0.18287786D-04  0.10240610D-03
 -0.84118318D-04 -0.52096976D-04 -0.22356409D-04 -0.39962392D-04 -0.75128557D-02
 -0.13549745D-01 -0.19979091D-01 -0.19949421D-03  0.27534633D-02  0.16228523D-04
 -0.59667006D-03  0.13019881D-01 -0.68472717D-02 -0.63506736D-03  0.12565330D-02
 -0.35673282D-04 -0.10598938D-03 -0.12253317D-03  0.12297778D-03  0.16181520D-02
 -0.19016294D-02  0.28347741D-03  0.16702360D-03 -0.22138294D-03  0.46741663D-02
 -0.60074210D-04  0.18653386D-04  0.41420824D-04  0.81165992D-04 -0.58943858D-04
 -0.24503100D-03
MO    4     MO 0.0        OCC NO =    2.0000000  ORB. ENERGY =    0.000000
 -0.95561547D-01 -0.17811101D+00 -0.30201225D+00 -0.45706342D+00 -0.57015059D+00
 -0.48927403D+00 -0.18736596D+00 -0.18195497D-03 -0.19522574D-02 -0.71963885D-02
 -0.21041818D-01 -0.25356414D-01  0.30544487D-01  0.75351747D-02  0.51433094D-01
  0.76887108D-02 -0.11566364D+01 -0.11215483D+01 -0.75658984D+00  0.25240249D-01
  0.24474551D-01  0.16510388D-01  0.11779734D+01  0.11422379D+01  0.77054697D+00
 -0.25990113D+00  0.72623496D-02  0.25291522D+00 -0.41368120D-01  0.17499304D-02
  0.29072644D-01 -0.12706210D-02  0.27340400D-04  0.51186059D-03  0.30015879D-01
  0.18566001D-02 -0.31872479D-01 -0.13026112D-02  0.56223087D-01  0.36981375D-03
  0.30518523D-02  0.58489351D-02 -0.89007874D-02  0.52027801D-03  0.13363018D-01
 -0.15165474D-02 -0.80683881D-03  0.11768005D-02 -0.36996164D-03  0.12814181D-03
  0.62635820D-03 -0.38944288D-03  0.75305488D-02  0.32713978D-03  0.11550683D-02
 -0.13654486D-01 -0.70040101D-03 -0.12024545D-01 -0.89371603D-02 -0.28101834D-03
  0.85593401D-02  0.38283094D-03  0.16681233D-03 -0.10924186D-03  0.51677939D-03
 -0.81274925D-04 -0.98606818D-04  0.12581027D-03 -0.41916206D-03  0.42633241D-03
 -0.16761484D-02 -0.44867309D-03 -0.22148531D-01 -0.39945788D-01 -0.58900041D-01
 -0.45753370D-01 -0.75297574D-02 -0.93755595D-04 -0.14527791D-01 -0.20434848D-01
 -0.73933325D-03 -0.78675165D-02 -0.10045198D-01 -0.31205952D-03 -0.12778108D-02
 -0.18366892D-03  0.74643928D-03  0.35111791D-02 -0.58763370D-02  0.23651579D-02
 -0.67192456D-02 -0.51506805D-02 -0.61401362D-02  0.13438376D-03 -0.15921060D-03
  0.24826847D-04 -0.77707035D-03 -0.43770088D-03  0.29668453D-03 -0.22309129D-01
 -0.40235433D-01 -0.59327123D-01 -0.47141214D-01 -0.69540762D-02 -0.86995321D-04
 -0.15861149D-01  0.23010242D-01 -0.17774271D-02 -0.86290553D-02  0.10258896D-01
 -0.17634479D-03 -0.13650648D-02  0.11097391D-03  0.83601034D-03  0.37543563D-02
 -0.61878174D-02  0.24334610D-02  0.70445335D-02 -0.58856486D-02  0.73689961D-02
  0.25962518D-04 -0.11468444D-03  0.88721925D-04  0.86559684D-03 -0.57243992D-03
 -0.57969371D-03
MO    5     MO 0.0        OCC NO =    2.0000000  ORB. ENERGY =    0.000000
  0.19379910D+00  0.36120965D+00  0.61248173D+00  0.92692597D+00  0.11562671D+01
  0.99224918D+00  0.37997872D+00 -0.12516038D-02 -0.13428887D-01 -0.49501407D-01
 -0.14473921D+00 -0.17441779D+00  0.21010471D+00  0.15213723D+00  0.81002944D-01
  0.74073877D-02  0.45709033D+00  0.44322387D+00  0.29899620D+00  0.24251071D+00
  0.23515381D+00  0.15863337D+00  0.62745409D+00  0.60841940D+00  0.41043613D+00
  0.10374372D+00  0.49447879D-01  0.13460140D+00  0.17090149D-01  0.46064681D-02
  0.20077557D-01  0.56005030D-03  0.50369196D-04  0.39005566D-03  0.34693400D-03
  0.17083008D-01 -0.17429942D-01  0.26490947D-02 -0.18978836D-01 -0.23806742D-01
 -0.11663585D-02  0.54829749D-02 -0.43166164D-02  0.15874247D-04 -0.49250547D-02
 -0.23952361D-02 -0.21243619D-03  0.42525603D-03 -0.21281984D-03 -0.60425862D-04
 -0.33928115D-03  0.17040544D-03 -0.28539342D-02  0.96096680D-03  0.27278586D-02
  0.66738365D-02 -0.22570101D-02 -0.32222352D-02  0.18879660D-02 -0.62589032D-03
 -0.49613408D-02 -0.50080044D-03 -0.63039849D-04  0.10336320D-04 -0.85463857D-04
  0.64351970D-04 -0.28601806D-04 -0.26182344D-03  0.12476758D-03 -0.24071540D-05
  0.51821501D-03  0.16874086D-03 -0.27145175D-02 -0.48957441D-02 -0.72187719D-02
 -0.23346903D-01 -0.72269281D-02 -0.89075710D-04  0.63370984D-02  0.75394706D-03
  0.84237547D-02  0.37708894D-02 -0.56049537D-02  0.55258235D-03  0.55754212D-03
 -0.40039012D-03  0.34679935D-03  0.12826504D-02 -0.29512364D-02  0.16685860D-02
  0.37017609D-02  0.25201477D-02 -0.23172942D-02  0.11479589D-03 -0.18040634D-03
  0.65610447D-04  0.36676120D-03  0.22932267D-03 -0.37127028D-04  0.10213705D-01
  0.18420838D-01  0.27161516D-01 -0.11032135D-02 -0.45014155D-02 -0.12563885D-03
  0.61062752D-02 -0.76160212D-02  0.19171517D-01  0.38265858D-02  0.33284022D-02
  0.41438950D-02  0.59013528D-03  0.46084581D-03  0.41608604D-03 -0.11228840D-02
 -0.19699284D-02  0.30928124D-02 -0.33035632D-02  0.22306541D-02 -0.47755982D-02
  0.83767841D-04 -0.20533456D-03  0.12156672D-03 -0.38470085D-03  0.26513908D-03
 -0.11731680D-03
END DATA
 TOTAL ENERGY =    -76.464513966748 THE VIRIAL(-V/T)=   2.00490221
