 71
GAUSSIAN              5 MOL ORBITALS    126 PRIMITIVES        3 NUCLEI   B3LYP   B3LYP   B3LYP
  O    1    (CENTRE  1)   0.00000000  0.09448631  0.00815606  CHARGE =  8.0
  H    2    (CENTRE  2)   0.00000000 -1.44255835 -1.09730160  CHARGE =  1.0
  H    3    (CENTRE  3)   0.00000000  1.53704465 -1.09730160  CHARGE =  1.0
CENTRE ASSIGNMENTS    1  1  1  1  1  1  1  1  1  1  1  1  1  1  1  1  1  1  1  1
CENTRE ASSIGNMENTS    1  1  1  1  1  1  1  1  1  1  1  1  1  1  1  1  1  1  1  1
CENTRE ASSIGNMENTS    1  1  1  1  1  1  1  1  1  1  1  1  1  1  1  1  1  1  1  1
CENTRE ASSIGNMENTS    1  1  1  1  1  1  1  1  1  1  1  1  2  2  2  2  2  2  2  2
CENTRE ASSIGNMENTS    2  2  2  2  2  2  2  2  2  2  2  2  2  2  2  2  2  2  2  3
CENTRE ASSIGNMENTS    3  3  3  3  3  3  3  3  3  3  3  3  3  3  3  3  3  3  3  3
CENTRE ASSIGNMENTS    3  3  3  3  3  3
TYPE ASSIGNMENTS      1  1  1  1  1  1  1  1  1  1  1  1  1  1  1  1  2  2  2  3
TYPE ASSIGNMENTS      3  3  4  4  4  2  3  4  2  3  4  2  3  4  5  6  7  8  9 10
TYPE ASSIGNMENTS      5  6  7  8  9 10  5  6  7  8  9 10 11 12 13 17 14 15 18 19
TYPE ASSIGNMENTS     16 20 11 12 13 17 14 15 18 19 16 20  1  1  1  1  1  1  2  3
TYPE ASSIGNMENTS      4  2  3  4  2  3  4  5  6  7  8  9 10  5  6  7  8  9 10  1
TYPE ASSIGNMENTS      1  1  1  1  1  2  3  4  2  3  4  2  3  4  5  6  7  8  9 10
TYPE ASSIGNMENTS      5  6  7  8  9 10
EXPONENTS  0.1533000D+05 0.2299000D+04 0.5224000D+03 0.1473000D+03 0.4755000D+02
EXPONENTS  0.1676000D+02 0.6207000D+01 0.5224000D+03 0.1473000D+03 0.4755000D+02
EXPONENTS  0.1676000D+02 0.6207000D+01 0.6882000D+00 0.1752000D+01 0.2384000D+00
EXPONENTS  0.7376000D-01 0.3446000D+02 0.7749000D+01 0.2280000D+01 0.3446000D+02
EXPONENTS  0.7749000D+01 0.2280000D+01 0.3446000D+02 0.7749000D+01 0.2280000D+01
EXPONENTS  0.7156000D+00 0.7156000D+00 0.7156000D+00 0.2140000D+00 0.2140000D+00
EXPONENTS  0.2140000D+00 0.5974000D-01 0.5974000D-01 0.5974000D-01 0.2314000D+01
EXPONENTS  0.2314000D+01 0.2314000D+01 0.2314000D+01 0.2314000D+01 0.2314000D+01
EXPONENTS  0.6450000D+00 0.6450000D+00 0.6450000D+00 0.6450000D+00 0.6450000D+00
EXPONENTS  0.6450000D+00 0.2140000D+00 0.2140000D+00 0.2140000D+00 0.2140000D+00
EXPONENTS  0.2140000D+00 0.2140000D+00 0.1428000D+01 0.1428000D+01 0.1428000D+01
EXPONENTS  0.1428000D+01 0.1428000D+01 0.1428000D+01 0.1428000D+01 0.1428000D+01
EXPONENTS  0.1428000D+01 0.1428000D+01 0.5000000D+00 0.5000000D+00 0.5000000D+00
EXPONENTS  0.5000000D+00 0.5000000D+00 0.5000000D+00 0.5000000D+00 0.5000000D+00
EXPONENTS  0.5000000D+00 0.5000000D+00 0.3387000D+02 0.5095000D+01 0.1159000D+01
EXPONENTS  0.3258000D+00 0.1027000D+00 0.2526000D-01 0.1407000D+01 0.1407000D+01
EXPONENTS  0.1407000D+01 0.3880000D+00 0.3880000D+00 0.3880000D+00 0.1020000D+00
EXPONENTS  0.1020000D+00 0.1020000D+00 0.1057000D+01 0.1057000D+01 0.1057000D+01
EXPONENTS  0.1057000D+01 0.1057000D+01 0.1057000D+01 0.2470000D+00 0.2470000D+00
EXPONENTS  0.2470000D+00 0.2470000D+00 0.2470000D+00 0.2470000D+00 0.3387000D+02
EXPONENTS  0.5095000D+01 0.1159000D+01 0.3258000D+00 0.1027000D+00 0.2526000D-01
EXPONENTS  0.1407000D+01 0.1407000D+01 0.1407000D+01 0.3880000D+00 0.3880000D+00
EXPONENTS  0.3880000D+00 0.1020000D+00 0.1020000D+00 0.1020000D+00 0.1057000D+01
EXPONENTS  0.1057000D+01 0.1057000D+01 0.1057000D+01 0.1057000D+01 0.1057000D+01
EXPONENTS  0.2470000D+00 0.2470000D+00 0.2470000D+00 0.2470000D+00 0.2470000D+00
EXPONENTS  0.2470000D+00
MO    1     MO 0.0        OCC NO =    2.0000000  ORB. ENERGY =    0.000000
  0.51636886D-01  0.96242665D-01  0.16319296D+00  0.24697520D+00  0.30808209D+00
  0.26438027D+00  0.10124360D+00 -0.60125745D-04 -0.64510979D-03 -0.23779961D-02
 -0.69531212D-02 -0.83788492D-02  0.10093212D-01  0.12280602D-01  0.38124537D-02
  0.29523252D-03  0.17774843D+01  0.17235619D+01  0.11627047D+01 -0.72816792D-01
 -0.70607794D-01 -0.47631601D-01  0.12645558D-01  0.12261937D-01  0.82718303D-02
  0.40154686D+00 -0.15221364D-01  0.25853863D-02  0.66542082D-01 -0.14855331D-02
  0.41178991D-03  0.21657369D-02 -0.14773506D-04  0.75438806D-05 -0.68776386D-03
  0.10681638D-02 -0.38039993D-03  0.22915859D-02 -0.70086751D-01  0.65623717D-02
 -0.18325403D-03  0.25867727D-03 -0.75423243D-04 -0.42903951D-03 -0.18597888D-01
  0.97231883D-03 -0.11246224D-04  0.12811974D-04 -0.15657503D-05 -0.15546411D-03
 -0.13150464D-02 -0.34916025D-04 -0.10492834D-01 -0.36406462D-03  0.14661122D-03
  0.22657192D-01  0.78748648D-03  0.20307322D-03  0.88213115D-02  0.30470739D-03
 -0.64290689D-03 -0.10125534D-02 -0.46116521D-03 -0.53754761D-05 -0.13684658D-04
  0.76326124D-03  0.58181563D-04 -0.12522439D-04  0.62023439D-03 -0.42055135D-04
  0.53576413D-04  0.52946244D-03  0.23182031D-02  0.41809747D-02  0.61648447D-02
  0.33712027D-02  0.22702612D-03 -0.10342851D-04  0.22528180D-01  0.14736628D-02
  0.17773897D-02  0.12364952D-01  0.28062079D-03  0.59374717D-03  0.19634896D-02
 -0.32754978D-04  0.13739194D-04 -0.28663325D-03  0.97651037D-04  0.18898221D-03
  0.11679791D-01  0.81763038D-02  0.92732508D-03 -0.22018338D-05 -0.11295613D-04
  0.13497447D-04  0.11806293D-02  0.66909113D-03  0.40884986D-04 -0.13633286D-02
 -0.24588194D-02 -0.36255277D-02 -0.35027832D-02 -0.63582294D-03  0.11274363D-05
  0.24729958D-01  0.53930042D-03 -0.76855674D-03  0.13507878D-01  0.49651218D-03
 -0.50329342D-03  0.20915820D-02  0.71687698D-05 -0.83733412D-05  0.41014025D-03
 -0.28769946D-03 -0.12244079D-03 -0.12341812D-01  0.92292703D-02  0.11268616D-02
  0.71540895D-05  0.29592755D-05 -0.10113365D-04 -0.12924572D-02  0.83029235D-03
  0.33986993D-04
MO    2     MO 0.0        OCC NO =    2.0000000  ORB. ENERGY =    0.000000
  0.47151381D+00  0.87882422D+00  0.14901700D+01  0.22552138D+01  0.28132014D+01
  0.24141454D+01  0.92448942D+00  0.19792048D-03  0.21235569D-02  0.78278306D-02
  0.22888117D-01  0.27581295D-01 -0.33224592D-01  0.35044471D-01 -0.15619769D-01
 -0.21495180D-02 -0.20774268D+00 -0.20144051D+00 -0.13589058D+00 -0.42851580D+00
 -0.41551618D+00 -0.28030476D+00 -0.30155605D+00 -0.29240793D+00 -0.19725666D+00
 -0.46930607D-01 -0.89434989D-01 -0.64860997D-01 -0.77770756D-02 -0.87975296D-02
 -0.88139754D-02 -0.25311952D-03 -0.87581987D-04 -0.18048111D-03 -0.81499298D-02
  0.79975748D-03  0.73501723D-02 -0.26782806D-03  0.81913572D-02  0.38177843D-01
 -0.54986533D-03 -0.17183463D-02  0.22682116D-02  0.50143798D-04  0.21736197D-02
  0.55781045D-02  0.13161940D-03 -0.27262723D-03  0.14100782D-03  0.18169797D-04
  0.15369545D-03 -0.16121906D-03  0.12263453D-02 -0.21442677D-02  0.97304203D-05
 -0.26480490D-02  0.45046689D-02  0.40539285D-02 -0.10309868D-02  0.19281344D-02
 -0.40831198D-02  0.11834172D-03  0.53898475D-04 -0.82879120D-05 -0.20167797D-03
 -0.89205811D-04  0.31637674D-03 -0.15550926D-03 -0.72489612D-04 -0.29151301D-03
  0.76054317D-03 -0.61880682D-04  0.14560438D-01  0.26260349D-01  0.38720869D-01
  0.29036608D-01  0.47057708D-02  0.24623561D-05 -0.26329708D-02  0.85902680D-02
  0.55859647D-02 -0.14451482D-02  0.43022351D-02  0.25822485D-02 -0.22948195D-03
  0.39589648D-04 -0.13610579D-03 -0.17746321D-02  0.17365276D-02  0.38104549D-04
 -0.13650702D-02 -0.95560179D-03  0.46135134D-02 -0.97924381D-04  0.70334841D-04
  0.27589540D-04 -0.13798551D-03 -0.78199721D-04  0.21477039D-03 -0.71401368D-02
 -0.12877531D-01 -0.18987911D-01 -0.11003679D-01 -0.51513895D-03  0.62944827D-04
 -0.28903026D-02  0.31243263D-02 -0.97721394D-02 -0.15787271D-02  0.32420736D-03
 -0.39417377D-02 -0.24445269D-03 -0.15083002D-03 -0.29157336D-03  0.24422890D-02
 -0.57694669D-03 -0.18653423D-02  0.14424437D-02 -0.10786668D-02  0.77039844D-02
 -0.17769592D-04  0.13247740D-03 -0.11470781D-03  0.15105534D-03 -0.97040042D-04
  0.26658530D-03
MO    3     MO 0.0        OCC NO =    2.0000000  ORB. ENERGY =    0.000000
  0.17760163D+00  0.33102023D+00  0.56129132D+00  0.84945473D+00  0.10596278D+01
  0.90931831D+00  0.34822061D+00  0.29169973D-03  0.31297467D-02  0.11536835D-01
  0.33733030D-01  0.40649942D-01 -0.48967162D-01 -0.80730554D-02 -0.22153783D-02
  0.16242771D-02  0.24474894D-01  0.23732415D-01  0.16009747D-01  0.12863654D+01
  0.12473417D+01  0.84144935D+00  0.42483505D+00  0.41194709D+00  0.27789707D+00
  0.55290597D-02  0.27117481D+00  0.96288421D-01  0.91624460D-03  0.27279673D-01
  0.12468754D-01  0.29820900D-04  0.29227412D-03  0.24871535D-03  0.14152794D-01
 -0.39341063D-02 -0.10218687D-01  0.31553764D-04 -0.96505257D-03 -0.11778621D+00
  0.32345291D-02  0.68112098D-05 -0.32413403D-02 -0.59076170D-05 -0.25608177D-03
 -0.18313029D-01 -0.13570431D-04  0.23227099D-03 -0.21870056D-03 -0.21406476D-05
 -0.18107401D-04  0.35629585D-03 -0.14448004D-03  0.63964502D-02 -0.74021932D-04
  0.31197596D-03 -0.14953066D-01 -0.61232937D-02  0.12146417D-03 -0.42362850D-02
  0.63453595D-02 -0.13942254D-04 -0.63499686D-05  0.82184011D-04  0.66233121D-04
  0.10509650D-04 -0.99083827D-03 -0.40403968D-03  0.85402559D-05  0.74428623D-03
  0.20534032D-03  0.72903805D-05 -0.43365549D-01 -0.78211553D-01 -0.11532289D+00
 -0.75770488D-01 -0.97988025D-02  0.93621275D-04  0.31019954D-03 -0.26591414D-01
 -0.22868943D-01  0.17025798D-03 -0.99822768D-02 -0.89819733D-02  0.27036075D-04
  0.17384052D-03  0.10703788D-03  0.69910182D-02 -0.55905088D-02 -0.14005094D-02
  0.16082372D-03  0.11258280D-03 -0.19503578D-01  0.18490118D-03 -0.30549740D-04
 -0.15435144D-03  0.16256557D-04  0.92129839D-05 -0.69904237D-03  0.21747671D-01
  0.39222820D-01  0.57834025D-01  0.41803128D-01  0.46727441D-02 -0.13300100D-03
  0.34051671D-03 -0.67626026D-02  0.21284357D-01  0.18599539D-03 -0.20029981D-02
  0.91378797D-02  0.28799830D-04  0.40072346D-03  0.42675890D-03 -0.42385753D-02
  0.24432421D-03  0.39942511D-02 -0.16993936D-03  0.12708152D-03 -0.13449364D-01
  0.21094243D-04 -0.30308753D-03  0.28199329D-03 -0.17796361D-04  0.11432628D-04
 -0.55682393D-03
MO    4     MO 0.0        OCC NO =    2.0000000  ORB. ENERGY =    0.000000
 -0.42179893D-01 -0.78616385D-01 -0.13330513D+00 -0.20174314D+00 -0.25165866D+00
 -0.21596057D+00 -0.82701426D-01 -0.44639495D-03 -0.47895249D-02 -0.17655090D-01
 -0.51622449D-01 -0.62207561D-01  0.74935599D-01  0.40623532D-01 -0.22638143D-01
 -0.66949511D-02  0.22763389D-01  0.22072830D-01  0.14890201D-01  0.53486410D+00
  0.51863826D+00  0.34987030D+00 -0.13469282D+01 -0.13060673D+01 -0.88106528D+00
  0.51424179D-02  0.10918226D+00 -0.29385629D+00  0.85217250D-03  0.94771681D-02
 -0.34937825D-01  0.27735553D-04  0.94245273D-04 -0.69991844D-03 -0.42117274D-01
  0.80782725D-02  0.34039002D-01  0.29347240D-04 -0.89756738D-03 -0.53259791D-01
 -0.64496081D-02 -0.39329517D-02  0.10382560D-01 -0.54945031D-05 -0.23817422D-03
 -0.56420058D-02  0.64629153D-03 -0.11996534D-02  0.55336192D-03 -0.19909542D-05
 -0.16841168D-04  0.72428036D-03 -0.13437669D-03  0.21856076D-02 -0.27688254D-03
  0.29015978D-03 -0.51770577D-02  0.17049902D-01  0.11297030D-03 -0.13797650D-02
 -0.16219255D-01 -0.12967286D-04 -0.59059215D-05  0.17144406D-03 -0.60300881D-03
  0.97747203D-05 -0.22844169D-03  0.32253583D-03  0.79430441D-05 -0.28589048D-03
  0.14864906D-02  0.67805712D-05  0.14884125D-01  0.26844132D-01  0.39581656D-01
  0.25736494D-01  0.47131028D-02  0.14072020D-03  0.28850759D-03  0.18524573D-01
 -0.54958422D-02  0.15835200D-03  0.84825304D-02 -0.33043537D-02  0.25145468D-04
  0.34813219D-03 -0.89417910D-03 -0.11457913D-02  0.49052869D-02 -0.37594956D-02
  0.14957747D-03  0.10471000D-03  0.40926570D-03 -0.18225144D-03  0.36012348D-03
 -0.17787205D-03  0.15119752D-04  0.85687288D-05 -0.43019806D-03  0.44030721D-01
  0.79411218D-01  0.11709180D+00  0.79668777D-01  0.10374479D-01  0.32284749D-04
  0.31670470D-03 -0.37249457D-01  0.15869346D-01  0.17298891D-03 -0.14695565D-01
  0.47655015D-02  0.26785886D-04 -0.49092551D-04 -0.85504682D-03 -0.67977025D-02
  0.83548842D-02 -0.15571817D-02 -0.15805566D-03  0.11819483D-03 -0.17687055D-01
 -0.11193906D-03  0.20113977D-03 -0.89200705D-04 -0.16551878D-04  0.10633156D-04
  0.19398009D-03
MO    5     MO 0.0        OCC NO =    2.0000000  ORB. ENERGY =    0.000000
 -0.30404868D-01 -0.56669675D-01 -0.96091398D-01 -0.14542411D+00 -0.18140512D+00
 -0.15567258D+00 -0.59614328D-01 -0.16497348D-02 -0.17700572D-01 -0.65247641D-01
 -0.19078027D+00 -0.22989951D+00  0.27693832D+00  0.16687833D+00  0.10325836D+00
  0.93806336D-02 -0.91536677D-01 -0.88759786D-01 -0.59876827D-01  0.35497101D-01
  0.34420247D-01  0.23219695D-01  0.70857370D+00  0.68707814D+00  0.46349885D+00
 -0.20678813D-01  0.70579504D-02  0.15007498D+00 -0.34267762D-02  0.77029311D-03
  0.22645099D-01 -0.11153086D-03  0.13476135D-04  0.44853632D-03 -0.15485053D-02
  0.19883862D-01 -0.18335357D-01 -0.11801182D-03  0.36093192D-02 -0.39528703D-02
 -0.30496065D-02  0.79466294D-02 -0.48970228D-02  0.22094626D-04  0.95775181D-03
 -0.78323408D-04 -0.36000108D-03  0.63128818D-03 -0.27128710D-03  0.80060722D-05
  0.67722105D-04 -0.36741894D-04  0.54035874D-03  0.50701261D-04  0.27362067D-02
 -0.11667974D-02 -0.21728057D-03 -0.26543228D-02 -0.45427885D-03  0.65176782D-04
 -0.55542971D-02  0.52144357D-04  0.23749031D-04 -0.20964044D-04  0.59728845D-04
 -0.39306337D-04  0.90030555D-04  0.81941480D-04 -0.31940757D-04 -0.27138423D-04
 -0.26112802D-03 -0.27266194D-04  0.40769590D-02  0.73529635D-02  0.10841940D-01
 -0.14294899D-01 -0.77192284D-02 -0.14640200D-03 -0.11601535D-02  0.66170995D-02
  0.14355121D-01 -0.63676883D-03 -0.48743608D-02  0.24458169D-02 -0.10111555D-03
 -0.59283912D-03  0.38193845D-03  0.45916618D-04 -0.23197680D-02  0.22738513D-02
 -0.60148446D-03 -0.42106232D-03  0.24236238D-02  0.18359990D-03 -0.29757902D-03
  0.11397913D-03 -0.60799905D-04 -0.34456775D-04  0.12603620D-04  0.64954963D-02
  0.11714895D-01  0.17273606D-01 -0.12055823D-01 -0.73481557D-02 -0.14849350D-03
 -0.12735404D-02 -0.76897668D-02  0.16891211D-01 -0.69562711D-03  0.47155623D-02
  0.28010474D-02 -0.10771204D-03  0.57645045D-03  0.40060295D-03 -0.40232174D-03
 -0.21342216D-02  0.25365434D-02  0.63557717D-03 -0.47528787D-03 -0.35969910D-02
  0.15705127D-03 -0.27421310D-03  0.11716183D-03  0.66558805D-04 -0.42758297D-04
 -0.45690526D-04
END DATA
 TOTAL ENERGY =    -76.464666781330 THE VIRIAL(-V/T)=   2.00691325
