 71
GAUSSIAN              5 MOL ORBITALS    126 PRIMITIVES        3 NUCLEI   B3LYP   B3LYP   B3LYP
  O    1    (CENTRE  1)   0.00000000 -0.09448631  0.00815606  CHARGE =  8.0
  H    2    (CENTRE  2)   0.00000000 -1.44255835 -1.09730160  CHARGE =  1.0
  H    3    (CENTRE  3)   0.00000000  1.53704465 -1.09730160  CHARGE =  1.0
CENTRE ASSIGNMENTS    1  1  1  1  1  1  1  1  1  1  1  1  1  1  1  1  1  1  1  1
CENTRE ASSIGNMENTS    1  1  1  1  1  1  1  1  1  1  1  1  1  1  1  1  1  1  1  1
CENTRE ASSIGNMENTS    1  1  1  1  1  1  1  1  1  1  1  1  1  1  1  1  1  1  1  1
CENTRE ASSIGNMENTS    1  1  1  1  1  1  1  1  1  1  1  1  2  2  2  2  2  2  2  2
CENTRE ASSIGNMENTS    2  2  2  2  2  2  2  2  2  2  2  2  2  2  2  2  2  2  2  3
CENTRE ASSIGNMENTS    3  3  3  3  3  3  3  3  3  3  3  3  3  3  3  3  3  3  3  3
CENTRE ASSIGNMENTS    3  3  3  3  3  3
TYPE ASSIGNMENTS      1  1  1  1  1  1  1  1  1  1  1  1  1  1  1  1  2  2  2  3
TYPE ASSIGNMENTS      3  3  4  4  4  2  3  4  2  3  4  2  3  4  5  6  7  8  9 10
TYPE ASSIGNMENTS      5  6  7  8  9 10  5  6  7  8  9 10 11 12 13 17 14 15 18 19
TYPE ASSIGNMENTS     16 20 11 12 13 17 14 15 18 19 16 20  1  1  1  1  1  1  2  3
TYPE ASSIGNMENTS      4  2  3  4  2  3  4  5  6  7  8  9 10  5  6  7  8  9 10  1
TYPE ASSIGNMENTS      1  1  1  1  1  2  3  4  2  3  4  2  3  4  5  6  7  8  9 10
TYPE ASSIGNMENTS      5  6  7  8  9 10
EXPONENTS  0.1533000D+05 0.2299000D+04 0.5224000D+03 0.1473000D+03 0.4755000D+02
EXPONENTS  0.1676000D+02 0.6207000D+01 0.5224000D+03 0.1473000D+03 0.4755000D+02
EXPONENTS  0.1676000D+02 0.6207000D+01 0.6882000D+00 0.1752000D+01 0.2384000D+00
EXPONENTS  0.7376000D-01 0.3446000D+02 0.7749000D+01 0.2280000D+01 0.3446000D+02
EXPONENTS  0.7749000D+01 0.2280000D+01 0.3446000D+02 0.7749000D+01 0.2280000D+01
EXPONENTS  0.7156000D+00 0.7156000D+00 0.7156000D+00 0.2140000D+00 0.2140000D+00
EXPONENTS  0.2140000D+00 0.5974000D-01 0.5974000D-01 0.5974000D-01 0.2314000D+01
EXPONENTS  0.2314000D+01 0.2314000D+01 0.2314000D+01 0.2314000D+01 0.2314000D+01
EXPONENTS  0.6450000D+00 0.6450000D+00 0.6450000D+00 0.6450000D+00 0.6450000D+00
EXPONENTS  0.6450000D+00 0.2140000D+00 0.2140000D+00 0.2140000D+00 0.2140000D+00
EXPONENTS  0.2140000D+00 0.2140000D+00 0.1428000D+01 0.1428000D+01 0.1428000D+01
EXPONENTS  0.1428000D+01 0.1428000D+01 0.1428000D+01 0.1428000D+01 0.1428000D+01
EXPONENTS  0.1428000D+01 0.1428000D+01 0.5000000D+00 0.5000000D+00 0.5000000D+00
EXPONENTS  0.5000000D+00 0.5000000D+00 0.5000000D+00 0.5000000D+00 0.5000000D+00
EXPONENTS  0.5000000D+00 0.5000000D+00 0.3387000D+02 0.5095000D+01 0.1159000D+01
EXPONENTS  0.3258000D+00 0.1027000D+00 0.2526000D-01 0.1407000D+01 0.1407000D+01
EXPONENTS  0.1407000D+01 0.3880000D+00 0.3880000D+00 0.3880000D+00 0.1020000D+00
EXPONENTS  0.1020000D+00 0.1020000D+00 0.1057000D+01 0.1057000D+01 0.1057000D+01
EXPONENTS  0.1057000D+01 0.1057000D+01 0.1057000D+01 0.2470000D+00 0.2470000D+00
EXPONENTS  0.2470000D+00 0.2470000D+00 0.2470000D+00 0.2470000D+00 0.3387000D+02
EXPONENTS  0.5095000D+01 0.1159000D+01 0.3258000D+00 0.1027000D+00 0.2526000D-01
EXPONENTS  0.1407000D+01 0.1407000D+01 0.1407000D+01 0.3880000D+00 0.3880000D+00
EXPONENTS  0.3880000D+00 0.1020000D+00 0.1020000D+00 0.1020000D+00 0.1057000D+01
EXPONENTS  0.1057000D+01 0.1057000D+01 0.1057000D+01 0.1057000D+01 0.1057000D+01
EXPONENTS  0.2470000D+00 0.2470000D+00 0.2470000D+00 0.2470000D+00 0.2470000D+00
EXPONENTS  0.2470000D+00
MO    1     MO 0.0        OCC NO =    2.0000000  ORB. ENERGY =    0.000000
 -0.95273174D-01 -0.17757353D+00 -0.30110087D+00 -0.45568416D+00 -0.56843007D+00
 -0.48779757D+00 -0.18680055D+00  0.20289882D-03  0.21769712D-02  0.80247258D-02
  0.23463828D-01  0.28275053D-01 -0.34060298D-01 -0.31485066D-01  0.38057959D-01
  0.83059296D-02  0.11282755D+00  0.10940477D+00  0.73803812D-01 -0.26843586D-01
 -0.26029249D-01 -0.17559178D-01  0.14934467D+01  0.14481409D+01  0.97690732D+00
  0.25462451D-01 -0.13781100D-01  0.32461869D+00  0.42131408D-02 -0.50916873D-02
  0.39265703D-01  0.13700916D-03 -0.66234040D-04  0.77872942D-03  0.43582113D-01
 -0.52038275D-02 -0.38378286D-01 -0.42974563D-03 -0.44942521D-02 -0.98490581D-02
  0.62442478D-02  0.48558948D-02 -0.11100143D-01  0.82397442D-04 -0.11624392D-02
  0.47645861D-02 -0.69722888D-03  0.12527882D-02 -0.55555936D-03  0.29210619D-04
 -0.81812046D-04  0.14568322D-02 -0.66035455D-03 -0.13323780D-02  0.58222691D-03
  0.14128052D-02  0.23289046D-02 -0.18397543D-01  0.56825844D-03  0.16682295D-02
  0.16650862D-01  0.18716769D-03 -0.28268930D-04  0.38982006D-03  0.59047163D-03
  0.50056177D-04  0.45352316D-03 -0.25389155D-03  0.34750613D-04 -0.16229834D-02
 -0.15175234D-02 -0.10013229D-03 -0.31774853D-01 -0.57307256D-01 -0.84499516D-01
 -0.61382650D-01 -0.81744291D-02 -0.84385971D-04  0.17228852D-02 -0.33460806D-01
 -0.57772925D-02  0.93660965D-03 -0.13562902D-01 -0.20759272D-03  0.14128649D-03
 -0.17425684D-03  0.11466567D-02  0.45508800D-02 -0.79112454D-02  0.33603653D-02
  0.82850666D-03  0.66433987D-03 -0.11468528D-01 -0.28057814D-04 -0.28970017D-03
  0.31775798D-03  0.88242089D-04  0.63602339D-04  0.74377618D-03 -0.27796538D-01
 -0.50132202D-01 -0.73919902D-01 -0.51290320D-01 -0.99253412D-02 -0.13873716D-03
  0.13020383D-02  0.22119723D-01  0.14291980D-03  0.71912045D-03  0.11369218D-01
  0.21882316D-03  0.11702046D-03  0.43813219D-03  0.82105069D-03  0.28415825D-02
 -0.58495069D-02  0.30079244D-02 -0.70295043D-03  0.46168766D-03  0.44926037D-02
  0.37944836D-03 -0.44753685D-03  0.68088487D-04 -0.67362472D-04  0.33111644D-04
  0.11840639D-03
MO    2     MO 0.0        OCC NO =    2.0000000  ORB. ENERGY =    0.000000
 -0.15282442D+00 -0.28483959D+00 -0.48298556D+00 -0.73094729D+00 -0.91179913D+00
 -0.78245930D+00 -0.29964034D+00  0.20307132D-03  0.21788220D-02  0.80315483D-02
  0.23483776D-01  0.28299092D-01 -0.34089255D-01 -0.38751473D-01 -0.21678719D-01
 -0.24880891D-02  0.16245130D+01  0.15752311D+01  0.10626416D+01 -0.24621965D+00
 -0.23875024D+00 -0.16105950D+00 -0.28652659D+00 -0.27783441D+00 -0.18742545D+00
  0.36661332D+00 -0.50018482D-01 -0.60697605D-01  0.60661620D-01 -0.42371580D-02
 -0.73082402D-02  0.19726845D-02 -0.34224407D-04 -0.14221947D-03 -0.44094520D-02
 -0.32388192D-02  0.76482711D-02 -0.61875611D-02 -0.64709115D-01  0.22814969D-01
 -0.10149423D-03 -0.19741490D-02  0.20756433D-02  0.11863744D-02 -0.16737026D-01
  0.25600851D-02  0.20714976D-03 -0.28695869D-03  0.79808934D-04  0.42058017D-03
 -0.11779457D-02 -0.36948700D-03 -0.95079131D-02 -0.11377459D-02 -0.64131861D-03
  0.20341844D-01  0.22663609D-02  0.20105638D-02  0.81818953D-02  0.11468768D-02
 -0.86607995D-04  0.26948767D-02 -0.40702155D-03 -0.71293268D-04 -0.80322593D-04
  0.72071855D-03  0.16906452D-03  0.24498560D-04  0.50034608D-03  0.44815283D-04
  0.21646922D-03 -0.14417242D-02  0.93826169D-02  0.16921936D-01  0.24951385D-01
  0.22426375D-01  0.35725855D-02  0.15183838D-04  0.24806435D-01  0.71384818D-02
  0.39926888D-02  0.13485488D-01  0.39410296D-02  0.20719650D-02  0.20342704D-02
  0.45050325D-04 -0.14584029D-03 -0.22633370D-02  0.21521616D-02  0.11117537D-03
  0.11929000D-01  0.95652945D-02  0.60983646D-02 -0.56179437D-05  0.10159371D-04
 -0.45414270D-05  0.12705267D-02  0.91575883D-03 -0.47002875D-04 -0.35957891D-02
 -0.64851537D-02 -0.95623554D-02 -0.34984683D-02  0.62784449D-03  0.55962543D-04
  0.18747000D-01  0.15669477D-02 -0.56058852D-02  0.10354036D-01 -0.72404802D-03
 -0.20413095D-02  0.16848833D-02 -0.15322857D-03 -0.19187376D-03  0.53336386D-03
  0.48808858D-03 -0.10214524D-02 -0.10121217D-01  0.66474686D-02  0.24071788D-02
 -0.31290889D-04  0.84488821D-04 -0.53197932D-04 -0.96989796D-03  0.47674788D-03
  0.18433219D-03
MO    3     MO 0.0        OCC NO =    2.0000000  ORB. ENERGY =    0.000000
  0.42331712D+00  0.78899351D+00  0.13378494D+01  0.20246928D+01  0.25256446D+01
  0.21673788D+01  0.82999096D+00  0.11798918D-03  0.12659465D-02  0.46665172D-02
  0.13644623D-01  0.16442434D-01 -0.19806654D-01  0.37209772D-01  0.84921336D-02
  0.15577802D-02  0.70437290D+00  0.68300477D+00  0.46075098D+00  0.48810934D+00
  0.47330187D+00  0.31928665D+00  0.26200034D+00  0.25405220D+00  0.17138211D+00
  0.15895994D+00  0.98696180D-01  0.55180520D-01  0.26302283D-01  0.84773017D-02
  0.51850225D-02  0.85533667D-03  0.69950427D-04  0.97962189D-04  0.62973752D-02
  0.97618787D-03 -0.72735631D-02 -0.26828658D-02 -0.28057237D-01 -0.44551429D-01
  0.84036385D-03  0.10869977D-02 -0.19273616D-02  0.51440029D-03 -0.72570102D-02
 -0.46451306D-02 -0.25266661D-03  0.29252839D-03 -0.39861781D-04  0.18235943D-03
 -0.51074571D-03  0.64368925D-03 -0.41225378D-02  0.22233602D-02  0.46660856D-03
  0.88200240D-02 -0.41705092D-02 -0.19002566D-02  0.35475895D-02 -0.24995713D-02
  0.50043095D-03  0.11684721D-02 -0.17648055D-03  0.90113998D-04  0.74813595D-04
  0.31249649D-03 -0.25078801D-03 -0.11152335D-03  0.21694515D-03 -0.19553988D-04
 -0.11291743D-03 -0.62511746D-03 -0.18807236D-01 -0.33919625D-01 -0.50014467D-01
 -0.36934652D-01 -0.44218664D-02  0.14418770D-04  0.10755827D-01 -0.14960724D-01
 -0.13364880D-01  0.58471752D-02 -0.58207629D-02 -0.50790096D-02  0.88203968D-03
  0.55480734D-04  0.75281695D-04  0.46879991D-02 -0.34172467D-02 -0.12707524D-02
  0.51722973D-02  0.41474179D-02 -0.13443379D-01 -0.21728664D-04  0.62118172D-04
 -0.40389508D-04  0.55088793D-03  0.39706404D-03  0.17995481D-04  0.71906615D-02
  0.12968654D-01  0.19122273D-01  0.13488008D-01  0.16954244D-02 -0.51417818D-04
  0.81285152D-02 -0.21637313D-02  0.68339617D-02  0.44894084D-02 -0.64502870D-03
  0.32006909D-02  0.73054888D-03  0.72785264D-04  0.21990354D-03 -0.11477994D-02
 -0.11924502D-04  0.11597239D-02 -0.43884603D-02  0.28822772D-02 -0.40183883D-02
 -0.24157890D-04 -0.35870305D-04  0.60028195D-04 -0.42053824D-03  0.20671320D-03
 -0.36729393D-03
MO    4     MO 0.0        OCC NO =    2.0000000  ORB. ENERGY =    0.000000
 -0.21820223D+00 -0.40669307D+00 -0.68960526D+00 -0.10436442D+01 -0.13018639D+01
 -0.11171929D+01 -0.42782554D+00 -0.91569203D-03 -0.98247745D-02 -0.36215969D-01
 -0.10589337D+00 -0.12760666D+00  0.15371574D+00  0.66868107D-01  0.55809775D-01
  0.39992660D-02  0.17304965D+00  0.16779995D+00  0.11319685D+00  0.11421286D+01
  0.11074805D+01  0.74709981D+00  0.18290031D+00  0.17735177D+00  0.11964046D+00
  0.39053124D-01  0.24262281D+00  0.31028639D-01  0.64619195D-02  0.24735382D-01
  0.30578499D-02  0.21013828D-03  0.26610183D-03  0.58919780D-04 -0.48067863D-02
  0.10753957D-01 -0.59471707D-02 -0.65912386D-03 -0.68930748D-02 -0.10348929D+00
 -0.39353723D-02  0.53321111D-02 -0.13967388D-02  0.12637736D-03 -0.17828952D-02
 -0.17507718D-01 -0.50719022D-03  0.48634821D-03  0.20842007D-04  0.44801889D-04
 -0.12547951D-03  0.30192044D-03 -0.10128211D-02  0.59187927D-02  0.14086154D-02
  0.21668949D-02 -0.14411225D-01  0.17339342D-02  0.87156836D-03 -0.33451532D-02
 -0.59597806D-02  0.28706909D-03 -0.43357570D-04  0.11441973D-03  0.25294878D-03
  0.76773835D-04 -0.10356351D-02  0.63739397D-03  0.53298874D-04  0.69237587D-03
 -0.13962403D-02 -0.15357825D-03 -0.21788861D-01 -0.39297109D-01 -0.57943564D-01
 -0.53355411D-01 -0.80244980D-02  0.49019467D-04  0.26424811D-02 -0.75959310D-02
 -0.14874847D-01  0.14365283D-02 -0.49764140D-02 -0.75606488D-02  0.21669865D-03
  0.27458039D-03  0.12991303D-04  0.42175058D-02 -0.14268460D-02 -0.27906597D-02
  0.12707250D-02  0.10189336D-02 -0.11943435D-01 -0.41102448D-04  0.26569350D-03
 -0.22459105D-03  0.13534161D-03  0.97550309D-04 -0.79302484D-04  0.35084848D-01
  0.63276968D-01  0.93301852D-01  0.51038832D-01  0.44501823D-02 -0.17356571D-03
  0.19970057D-02 -0.20387412D-01  0.22443772D-01  0.11029535D-02 -0.43029113D-02
  0.79484568D-02  0.17948054D-03  0.42208577D-03  0.20795968D-03 -0.47799873D-02
  0.26257109D-02  0.21542765D-02 -0.10781527D-02  0.70811506D-03 -0.14481828D-01
 -0.11544998D-03 -0.72998532D-04  0.18844851D-03 -0.10331743D-03  0.50785099D-04
 -0.84203364D-03
MO    5     MO 0.0        OCC NO =    2.0000000  ORB. ENERGY =    0.000000
 -0.73197072D-02 -0.13642731D-01 -0.23133167D-01 -0.35009589D-01 -0.43671702D-01
 -0.37476818D-01 -0.14351630D-01 -0.14519816D-02 -0.15578810D-01 -0.57426426D-01
 -0.16791150D+00 -0.20234152D+00  0.24374181D+00  0.15032878D+00  0.79990252D-01
  0.68846659D-02  0.19107183D+00  0.18527540D+00  0.12498569D+00 -0.72454539D+00
 -0.70256530D+00 -0.47394640D+00  0.42270735D+00  0.40988394D+00  0.27650529D+00
  0.43120294D-01 -0.15017465D+00  0.92849686D-01  0.71348932D-02 -0.14621883D-01
  0.17065461D-01  0.23202304D-03 -0.16877943D-03  0.33483369D-03 -0.71069545D-02
  0.17271359D-01 -0.10164404D-01 -0.72776803D-03 -0.76109511D-02  0.69804306D-01
 -0.23580620D-02  0.50807090D-02 -0.27226471D-02  0.13953888D-03 -0.19685741D-02
  0.84007175D-02  0.41292080D-04  0.18112371D-03 -0.22241579D-03  0.49467762D-04
 -0.13854752D-03 -0.36519699D-03 -0.11183009D-02 -0.30967815D-02  0.21128826D-02
  0.23925653D-02  0.77821715D-02 -0.79553749D-03  0.96233746D-03  0.15081731D-02
 -0.55431103D-02  0.31696577D-03 -0.47873025D-04 -0.59871485D-04 -0.17064650D-03
  0.84769413D-04  0.15725572D-03 -0.22451790D-03  0.58849662D-04  0.22358735D-04
  0.73645740D-03 -0.16957259D-03  0.28056244D-01  0.50600591D-01  0.74610542D-01
  0.30054768D-01 -0.19790007D-02 -0.17681451D-03  0.29176812D-02  0.21097542D-01
  0.32205738D-01  0.15861349D-02  0.46668087D-03  0.80774467D-02  0.23926664D-03
 -0.73333171D-03  0.27356437D-03 -0.45458383D-02  0.26337233D-03  0.42824660D-02
  0.14030641D-02  0.11250500D-02  0.15298187D-01  0.18165924D-03 -0.38493583D-03
  0.20327659D-03  0.14943670D-03  0.10770964D-03 -0.34091508D-04 -0.11297878D-01
 -0.20376188D-01 -0.30044678D-01 -0.35916182D-01 -0.97576030D-02 -0.47132540D-04
  0.22049830D-02  0.56874670D-04  0.20576749D-02  0.12178201D-02  0.57173389D-02
 -0.17716537D-02  0.19817246D-03  0.39345756D-03  0.14749861D-03  0.23477484D-02
 -0.30297494D-02  0.68200097D-03 -0.11904364D-02  0.78186140D-03  0.48104231D-02
  0.23559186D-03 -0.25571671D-03  0.20124848D-04 -0.11407737D-03  0.56074091D-04
  0.47948447D-03
END DATA
 TOTAL ENERGY =    -76.459201268050 THE VIRIAL(-V/T)=   2.00657540
