 72
GAUSSIAN              5 MOL ORBITALS    126 PRIMITIVES        3 NUCLEI   B3LYP   B3LYP   B3LYP
  O    1    (CENTRE  1)   0.00000000  0.00000000  0.10264236  CHARGE =  8.0
  H    2    (CENTRE  2)   0.00000000 -1.44255835 -1.09730160  CHARGE =  1.0
  H    3    (CENTRE  3)   0.00000000  1.53704465 -1.09730160  CHARGE =  1.0
CENTRE ASSIGNMENTS    1  1  1  1  1  1  1  1  1  1  1  1  1  1  1  1  1  1  1  1
CENTRE ASSIGNMENTS    1  1  1  1  1  1  1  1  1  1  1  1  1  1  1  1  1  1  1  1
CENTRE ASSIGNMENTS    1  1  1  1  1  1  1  1  1  1  1  1  1  1  1  1  1  1  1  1
CENTRE ASSIGNMENTS    1  1  1  1  1  1  1  1  1  1  1  1  2  2  2  2  2  2  2  2
CENTRE ASSIGNMENTS    2  2  2  2  2  2  2  2  2  2  2  2  2  2  2  2  2  2  2  3
CENTRE ASSIGNMENTS    3  3  3  3  3  3  3  3  3  3  3  3  3  3  3  3  3  3  3  3
CENTRE ASSIGNMENTS    3  3  3  3  3  3
TYPE ASSIGNMENTS      1  1  1  1  1  1  1  1  1  1  1  1  1  1  1  1  2  2  2  3
TYPE ASSIGNMENTS      3  3  4  4  4  2  3  4  2  3  4  2  3  4  5  6  7  8  9 10
TYPE ASSIGNMENTS      5  6  7  8  9 10  5  6  7  8  9 10 11 12 13 17 14 15 18 19
TYPE ASSIGNMENTS     16 20 11 12 13 17 14 15 18 19 16 20  1  1  1  1  1  1  2  3
TYPE ASSIGNMENTS      4  2  3  4  2  3  4  5  6  7  8  9 10  5  6  7  8  9 10  1
TYPE ASSIGNMENTS      1  1  1  1  1  2  3  4  2  3  4  2  3  4  5  6  7  8  9 10
TYPE ASSIGNMENTS      5  6  7  8  9 10
EXPONENTS  0.1533000D+05 0.2299000D+04 0.5224000D+03 0.1473000D+03 0.4755000D+02
EXPONENTS  0.1676000D+02 0.6207000D+01 0.5224000D+03 0.1473000D+03 0.4755000D+02
EXPONENTS  0.1676000D+02 0.6207000D+01 0.6882000D+00 0.1752000D+01 0.2384000D+00
EXPONENTS  0.7376000D-01 0.3446000D+02 0.7749000D+01 0.2280000D+01 0.3446000D+02
EXPONENTS  0.7749000D+01 0.2280000D+01 0.3446000D+02 0.7749000D+01 0.2280000D+01
EXPONENTS  0.7156000D+00 0.7156000D+00 0.7156000D+00 0.2140000D+00 0.2140000D+00
EXPONENTS  0.2140000D+00 0.5974000D-01 0.5974000D-01 0.5974000D-01 0.2314000D+01
EXPONENTS  0.2314000D+01 0.2314000D+01 0.2314000D+01 0.2314000D+01 0.2314000D+01
EXPONENTS  0.6450000D+00 0.6450000D+00 0.6450000D+00 0.6450000D+00 0.6450000D+00
EXPONENTS  0.6450000D+00 0.2140000D+00 0.2140000D+00 0.2140000D+00 0.2140000D+00
EXPONENTS  0.2140000D+00 0.2140000D+00 0.1428000D+01 0.1428000D+01 0.1428000D+01
EXPONENTS  0.1428000D+01 0.1428000D+01 0.1428000D+01 0.1428000D+01 0.1428000D+01
EXPONENTS  0.1428000D+01 0.1428000D+01 0.5000000D+00 0.5000000D+00 0.5000000D+00
EXPONENTS  0.5000000D+00 0.5000000D+00 0.5000000D+00 0.5000000D+00 0.5000000D+00
EXPONENTS  0.5000000D+00 0.5000000D+00 0.3387000D+02 0.5095000D+01 0.1159000D+01
EXPONENTS  0.3258000D+00 0.1027000D+00 0.2526000D-01 0.1407000D+01 0.1407000D+01
EXPONENTS  0.1407000D+01 0.3880000D+00 0.3880000D+00 0.3880000D+00 0.1020000D+00
EXPONENTS  0.1020000D+00 0.1020000D+00 0.1057000D+01 0.1057000D+01 0.1057000D+01
EXPONENTS  0.1057000D+01 0.1057000D+01 0.1057000D+01 0.2470000D+00 0.2470000D+00
EXPONENTS  0.2470000D+00 0.2470000D+00 0.2470000D+00 0.2470000D+00 0.3387000D+02
EXPONENTS  0.5095000D+01 0.1159000D+01 0.3258000D+00 0.1027000D+00 0.2526000D-01
EXPONENTS  0.1407000D+01 0.1407000D+01 0.1407000D+01 0.3880000D+00 0.3880000D+00
EXPONENTS  0.3880000D+00 0.1020000D+00 0.1020000D+00 0.1020000D+00 0.1057000D+01
EXPONENTS  0.1057000D+01 0.1057000D+01 0.1057000D+01 0.1057000D+01 0.1057000D+01
EXPONENTS  0.2470000D+00 0.2470000D+00 0.2470000D+00 0.2470000D+00 0.2470000D+00
EXPONENTS  0.2470000D+00
MO    1     MO 0.0        OCC NO =    2.0000000  ORB. ENERGY =    0.000000
 -0.11225472D+00 -0.20922434D+00 -0.35476927D+00 -0.53690557D+00 -0.66974738D+00
 -0.57474289D+00 -0.22009599D+00 -0.16963106D-03 -0.18200299D-02 -0.67089731D-02
 -0.19616644D-01 -0.23639010D-01  0.28475692D-01  0.55126724D-02  0.54680930D-01
  0.95151593D-02 -0.14686761D-01 -0.14241218D-01 -0.96070414D-02  0.36192546D+00
  0.35094595D+00  0.23674606D+00  0.14959832D+01  0.14506005D+01  0.97856652D+00
 -0.33182264D-02  0.75393349D-01  0.32569716D+00 -0.55625771D-03  0.73769098D-02
  0.40824140D-01 -0.18379593D-04  0.86372345D-04  0.76517807D-03  0.39380993D-01
 -0.42798271D-05 -0.39376713D-01  0.16086824D-04  0.56581764D-03 -0.36999896D-01
  0.55144028D-02  0.62105265D-02 -0.11724929D-01 -0.23033415D-05  0.15849801D-03
 -0.47864351D-02 -0.54483430D-03  0.11772433D-02 -0.63240895D-03 -0.11404441D-05
  0.12262710D-04  0.31284568D-03  0.85333928D-04  0.12646275D-02  0.17593923D-02
 -0.16978236D-03 -0.38598958D-02 -0.17863802D-01 -0.86219428D-04  0.66013179D-04
  0.12585625D-01 -0.85100667D-05  0.51652220D-05  0.13014478D-03  0.69187284D-03
 -0.87561681D-05 -0.25920544D-03 -0.55273396D-03 -0.67394977D-05 -0.13122889D-03
 -0.15228846D-02  0.39061886D-05 -0.36184611D-01 -0.65260436D-01 -0.96226475D-01
 -0.71844035D-01 -0.12176960D-01 -0.93252723D-04 -0.19081106D-03 -0.27413059D-01
 -0.75220230D-02 -0.10414213D-03 -0.13964255D-01 -0.34871773D-02 -0.16395562D-04
 -0.33501345D-03  0.78638247D-03  0.51387653D-02 -0.67511875D-02  0.16124222D-02
 -0.94061713D-04 -0.75533849D-04 -0.12785701D-01  0.26885898D-03 -0.33578353D-03
  0.66924546D-04 -0.93810904D-05 -0.63121509D-05 -0.13331054D-03 -0.16777886D-01
 -0.30259608D-01 -0.44617774D-01 -0.36227136D-01 -0.84330206D-02 -0.18282405D-03
 -0.17459748D-03  0.16678556D-01  0.62712687D-02 -0.95855871D-04  0.10466686D-01
  0.20127371D-02 -0.15413604D-04  0.62033013D-03  0.79448523D-03  0.16871128D-02
 -0.53924239D-02  0.37053111D-02  0.90160757D-04 -0.67538408D-04  0.20450889D-02
  0.28816160D-03 -0.45256839D-03  0.16440679D-03  0.85446867D-05 -0.50239947D-05
 -0.51576408D-04
MO    2     MO 0.0        OCC NO =    2.0000000  ORB. ENERGY =    0.000000
  0.45721711D+00  0.85217751D+00  0.14449867D+01  0.21868338D+01  0.27279027D+01
  0.23409464D+01  0.89645810D+00  0.37590090D-03  0.40331699D-02  0.14867024D-01
  0.43470305D-01  0.52383832D-01 -0.63101877D-01  0.15499895D-01 -0.12133727D-01
 -0.34542659D-03 -0.34013563D+00 -0.32981715D+00 -0.22249270D+00  0.55803956D+00
  0.54111066D+00  0.36503006D+00  0.11621373D+00  0.11268823D+00  0.76018811D-01
 -0.76847921D-01  0.11850087D+00  0.27581697D-01 -0.12882559D-01  0.12817692D-01
  0.24951797D-02 -0.42565916D-03  0.14945298D-03  0.44759124D-04  0.56651336D-02
 -0.20037211D-02 -0.36614125D-02  0.37256016D-03  0.13103961D-01 -0.51835357D-01
  0.19183507D-02 -0.74391583D-03 -0.11744349D-02 -0.53343860D-04  0.36707087D-02
 -0.83421747D-02 -0.33182793D-05  0.53435991D-04 -0.50117712D-04 -0.26411929D-04
  0.28399622D-03 -0.11937902D-04  0.19762771D-02  0.23659267D-02 -0.74717571D-04
 -0.39320467D-02 -0.63994391D-02 -0.18812902D-02 -0.19967847D-02 -0.69834091D-03
  0.21054429D-02 -0.19708749D-03  0.11962311D-03  0.50721737D-04  0.29279846D-05
 -0.20278704D-03 -0.50198515D-03 -0.34925947D-03 -0.15608229D-03  0.34981994D-03
  0.34047552D-03  0.90464734D-04 -0.19649458D-01 -0.35438606D-01 -0.52254204D-01
 -0.31836328D-01 -0.33945115D-02  0.62445136D-04 -0.44190574D-02 -0.11728333D-01
 -0.13287591D-01 -0.24118625D-02 -0.36608077D-02 -0.47891175D-02 -0.37971032D-03
  0.17466401D-03 -0.11441908D-04  0.36796777D-02 -0.18973491D-02 -0.17823286D-02
 -0.21784068D-02 -0.17493138D-02 -0.10747481D-01  0.64803325D-04  0.40674431D-04
 -0.10547776D-03 -0.21725983D-03 -0.14618522D-03 -0.26644648D-03  0.84041537D-02
  0.15157237D-01  0.22349338D-01  0.18553390D-01  0.32071857D-02 -0.41697498D-04
 -0.40435618D-02 -0.10251619D-02  0.60324498D-02 -0.22199583D-02 -0.11815386D-02
  0.32943528D-02 -0.35696883D-03  0.87431400D-04  0.13659515D-03 -0.12124770D-02
 -0.19707043D-03  0.14095475D-02  0.20880633D-02 -0.15641447D-02 -0.36874715D-02
 -0.69965740D-04 -0.37209005D-04  0.10717474D-03  0.19788927D-03 -0.11635238D-03
 -0.35068295D-03
MO    3     MO 0.0        OCC NO =    2.0000000  ORB. ENERGY =    0.000000
 -0.17570144D+00 -0.32747859D+00 -0.55528596D+00 -0.84036626D+00 -0.10482907D+01
 -0.89958935D+00 -0.34449493D+00 -0.63861546D-03 -0.68519248D-02 -0.25257485D-01
 -0.73851404D-01 -0.88994533D-01  0.10720335D+00  0.43882918D-01  0.21704138D-01
 -0.22198787D-03 -0.26744708D+00 -0.25933370D+00 -0.17494498D+00  0.11957356D+01
  0.11594613D+01  0.78216572D+00 -0.37171317D+00 -0.36043674D+00 -0.24314849D+00
 -0.60425166D-01  0.25745879D+00 -0.86274467D-01 -0.10129497D-01  0.29043995D-01
 -0.10613318D-01 -0.33469383D-03  0.34980070D-03 -0.20100883D-03 -0.16764197D-01
  0.68532606D-02  0.99109369D-02  0.29294233D-03  0.10303584D-01 -0.10904903D+00
 -0.45523654D-02  0.12251525D-02  0.33272129D-02 -0.41944031D-04  0.28862613D-02
 -0.20038647D-01 -0.83434826D-04 -0.13767565D-03  0.22111047D-03 -0.20767578D-04
  0.22330492D-03 -0.43309517D-03  0.15539376D-02  0.53340141D-02  0.45439332D-03
 -0.30917501D-02 -0.15165009D-01  0.71635747D-02 -0.15700626D-02 -0.83703318D-03
 -0.85267547D-02 -0.15496899D-03  0.94059100D-04  0.65196501D-04 -0.10225413D-03
 -0.15945051D-03 -0.12687811D-02  0.60858201D-03 -0.12272679D-03  0.10731916D-02
 -0.30181961D-03  0.71132003D-04 -0.15751289D-01 -0.28408098D-01 -0.41887724D-01
 -0.34480048D-01 -0.51791968D-02  0.11553005D-03 -0.34746845D-02  0.28757232D-03
 -0.14599708D-01 -0.18964363D-02 -0.79601761D-03 -0.74566235D-02 -0.29856447D-03
  0.36202254D-03 -0.36663740D-03  0.30691141D-02  0.95031334D-03 -0.40194274D-02
 -0.17128712D-02 -0.13754774D-02 -0.92879782D-02  0.57468317D-04  0.23900583D-03
 -0.29647414D-03 -0.17083040D-03 -0.11494477D-03 -0.56673452D-03  0.42775587D-01
  0.77147533D-01  0.11375399D+00  0.69331940D-01  0.86451184D-02 -0.12033884D-03
 -0.31794340D-02 -0.23878736D-01  0.23431594D-01 -0.17455430D-02 -0.78553159D-02
  0.86415363D-02 -0.28068295D-03  0.29416201D-03 -0.72053550D-04 -0.59244852D-02
  0.34774731D-02  0.24470121D-02  0.16418345D-02 -0.12298797D-02 -0.16840529D-01
 -0.26421553D-03  0.45009704D-04  0.21920582D-03  0.15559942D-03 -0.91487340D-04
 -0.82709422D-03
MO    4     MO 0.0        OCC NO =    2.0000000  ORB. ENERGY =    0.000000
  0.44769869D-01  0.83443674D-01  0.14149047D+00  0.21413079D+00  0.26711128D+00
  0.22922122D+00  0.87779549D-01  0.39060197D-03  0.41909028D-02  0.15448457D-01
  0.45170382D-01  0.54432506D-01 -0.65569722D-01 -0.35274381D-01 -0.22057774D-01
 -0.18564535D-02  0.16819593D+01  0.16309348D+01  0.11002190D+01  0.38863910D+00
  0.37684920D+00  0.25422024D+00 -0.11068540D+00 -0.10732761D+00 -0.72402571D-01
  0.38001041D+00  0.83124342D-01 -0.23365564D-01  0.63703826D-01  0.92006719D-02
 -0.39921909D-02  0.21048703D-02  0.11150039D-03 -0.73600882D-04  0.14874494D-02
 -0.38157861D-02  0.23283367D-02 -0.18422976D-02 -0.64798649D-01 -0.36206120D-01
  0.86008160D-03 -0.14696573D-02  0.60957575D-03  0.26378361D-03 -0.18151532D-01
 -0.61483818D-02  0.35640744D-04 -0.83476566D-04  0.47835822D-04  0.13060611D-03
 -0.14043519D-02 -0.79044774D-04 -0.97726244D-02  0.16464684D-02 -0.56567652D-03
  0.19443840D-01 -0.47168863D-02  0.18485421D-03  0.98740337D-02 -0.22251880D-03
  0.15121753D-02  0.97459108D-03 -0.59153229D-03  0.30165059D-04 -0.89977842D-05
  0.10027751D-02 -0.35545804D-03 -0.38506179D-04  0.77182173D-03  0.26496286D-03
  0.65499532D-04 -0.44734509D-03 -0.11573813D-01 -0.20873848D-01 -0.30778477D-01
 -0.15726825D-01 -0.66282573D-03  0.69278563D-04  0.21852091D-01 -0.64600535D-02
 -0.10443920D-01  0.11926580D-01 -0.80649879D-03 -0.33081958D-02  0.18776549D-02
  0.23902271D-03 -0.88302317D-04  0.18214986D-02 -0.20168003D-03 -0.16198186D-02
  0.10772149D-01  0.86502983D-02 -0.56812744D-02  0.62573738D-05  0.92325690D-04
 -0.98583064D-04  0.10743426D-02  0.72288106D-03 -0.16772030D-03  0.79025831D-02
  0.14252634D-01  0.21015501D-01  0.18438940D-01  0.37847491D-02 -0.81179633D-05
  0.19995278D-01 -0.18571535D-02  0.27157569D-02  0.10977620D-01 -0.21653881D-02
  0.20093400D-02  0.17651990D-02 -0.31268081D-04 -0.12263335D-06 -0.13042642D-02
  0.76294175D-03  0.54132241D-03 -0.10325403D-01  0.77346433D-02 -0.34809937D-02
 -0.88974185D-04  0.34352043D-04  0.54622142D-04 -0.97855585D-03  0.57535864D-03
 -0.25553940D-03
MO    5     MO 0.0        OCC NO =    2.0000000  ORB. ENERGY =    0.000000
  0.69071042D-01  0.12873706D+00  0.21829178D+00  0.33036140D+00  0.41209981D+00
  0.35364295D+00  0.13542646D+00 -0.15365190D-02 -0.16485840D-01 -0.60769911D-01
 -0.17768765D+00 -0.21412226D+00  0.25793296D+00  0.16716809D+00  0.86583616D-01
  0.67492551D-02  0.45714146D+00  0.44327344D+00  0.29902964D+00 -0.30352649D+00
 -0.29431860D+00 -0.19854559D+00  0.32430733D+00  0.31446902D+00  0.21213895D+00
  0.10328342D+00 -0.64622257D-01  0.66480579D-01  0.17314128D-01 -0.70860520D-02
  0.11647327D-01  0.57208487D-03 -0.91619650D-04  0.21108702D-03 -0.98001875D-02
  0.16557855D-01 -0.67576671D-02 -0.50071994D-03 -0.17611691D-01  0.29658036D-01
 -0.42233119D-02  0.57700905D-02 -0.15467787D-02  0.71694017D-04 -0.49334235D-02
  0.45375072D-02 -0.19991886D-03  0.30416978D-03 -0.10425092D-03  0.35497567D-04
 -0.38169023D-03  0.38618777D-04 -0.26561116D-02 -0.11362285D-02  0.23480626D-02
  0.52846611D-02  0.35971514D-02  0.15371711D-02  0.26836738D-02 -0.18846597D-03
 -0.85813587D-02  0.26488511D-03 -0.16077317D-03 -0.30922843D-04 -0.23108361D-05
  0.27254529D-03  0.18371613D-03  0.22009784D-03  0.20977422D-03 -0.90947601D-04
 -0.21316533D-03 -0.12158438D-03  0.17585653D-01  0.31716449D-01  0.46765886D-01
  0.11695432D-01 -0.35082129D-02 -0.14384020D-03  0.59392024D-02  0.14329536D-01
  0.19756559D-01  0.32415373D-02 -0.67081034D-03  0.41340244D-02  0.51032974D-03
 -0.54844167D-03  0.12714317D-03 -0.20033179D-02 -0.33060437D-03  0.23339223D-02
  0.29277734D-02  0.23510735D-02  0.70618144D-02  0.67453240D-04 -0.18038923D-03
  0.11293599D-03  0.29199667D-03  0.19647258D-03  0.82997046D-04  0.16636460D-02
  0.30004542D-02  0.44241679D-02 -0.14639480D-01 -0.67520852D-02 -0.77433547D-04
  0.54345371D-02 -0.73639823D-02  0.84063136D-02  0.29836186D-02  0.28285594D-02
  0.17852857D-03  0.47976524D-03  0.37212461D-03  0.85455050D-04  0.48476160D-03
 -0.10924953D-02  0.60773371D-03 -0.28063519D-02  0.21022066D-02  0.27723360D-03
  0.12998517D-03 -0.14228396D-03  0.12298789D-04 -0.26596270D-03  0.15637732D-03
  0.19373806D-03
END DATA
 TOTAL ENERGY =    -76.461475299424 THE VIRIAL(-V/T)=   2.00809213
