 72
GAUSSIAN              5 MOL ORBITALS    126 PRIMITIVES        3 NUCLEI   B3LYP   B3LYP   B3LYP
  O    1    (CENTRE  1)   0.00000000  0.00000000 -0.08633025  CHARGE =  8.0
  H    2    (CENTRE  2)   0.00000000 -1.44255835 -1.09730160  CHARGE =  1.0
  H    3    (CENTRE  3)   0.00000000  1.53704465 -1.09730160  CHARGE =  1.0
CENTRE ASSIGNMENTS    1  1  1  1  1  1  1  1  1  1  1  1  1  1  1  1  1  1  1  1
CENTRE ASSIGNMENTS    1  1  1  1  1  1  1  1  1  1  1  1  1  1  1  1  1  1  1  1
CENTRE ASSIGNMENTS    1  1  1  1  1  1  1  1  1  1  1  1  1  1  1  1  1  1  1  1
CENTRE ASSIGNMENTS    1  1  1  1  1  1  1  1  1  1  1  1  2  2  2  2  2  2  2  2
CENTRE ASSIGNMENTS    2  2  2  2  2  2  2  2  2  2  2  2  2  2  2  2  2  2  2  3
CENTRE ASSIGNMENTS    3  3  3  3  3  3  3  3  3  3  3  3  3  3  3  3  3  3  3  3
CENTRE ASSIGNMENTS    3  3  3  3  3  3
TYPE ASSIGNMENTS      1  1  1  1  1  1  1  1  1  1  1  1  1  1  1  1  2  2  2  3
TYPE ASSIGNMENTS      3  3  4  4  4  2  3  4  2  3  4  2  3  4  5  6  7  8  9 10
TYPE ASSIGNMENTS      5  6  7  8  9 10  5  6  7  8  9 10 11 12 13 17 14 15 18 19
TYPE ASSIGNMENTS     16 20 11 12 13 17 14 15 18 19 16 20  1  1  1  1  1  1  2  3
TYPE ASSIGNMENTS      4  2  3  4  2  3  4  5  6  7  8  9 10  5  6  7  8  9 10  1
TYPE ASSIGNMENTS      1  1  1  1  1  2  3  4  2  3  4  2  3  4  5  6  7  8  9 10
TYPE ASSIGNMENTS      5  6  7  8  9 10
EXPONENTS  0.1533000D+05 0.2299000D+04 0.5224000D+03 0.1473000D+03 0.4755000D+02
EXPONENTS  0.1676000D+02 0.6207000D+01 0.5224000D+03 0.1473000D+03 0.4755000D+02
EXPONENTS  0.1676000D+02 0.6207000D+01 0.6882000D+00 0.1752000D+01 0.2384000D+00
EXPONENTS  0.7376000D-01 0.3446000D+02 0.7749000D+01 0.2280000D+01 0.3446000D+02
EXPONENTS  0.7749000D+01 0.2280000D+01 0.3446000D+02 0.7749000D+01 0.2280000D+01
EXPONENTS  0.7156000D+00 0.7156000D+00 0.7156000D+00 0.2140000D+00 0.2140000D+00
EXPONENTS  0.2140000D+00 0.5974000D-01 0.5974000D-01 0.5974000D-01 0.2314000D+01
EXPONENTS  0.2314000D+01 0.2314000D+01 0.2314000D+01 0.2314000D+01 0.2314000D+01
EXPONENTS  0.6450000D+00 0.6450000D+00 0.6450000D+00 0.6450000D+00 0.6450000D+00
EXPONENTS  0.6450000D+00 0.2140000D+00 0.2140000D+00 0.2140000D+00 0.2140000D+00
EXPONENTS  0.2140000D+00 0.2140000D+00 0.1428000D+01 0.1428000D+01 0.1428000D+01
EXPONENTS  0.1428000D+01 0.1428000D+01 0.1428000D+01 0.1428000D+01 0.1428000D+01
EXPONENTS  0.1428000D+01 0.1428000D+01 0.5000000D+00 0.5000000D+00 0.5000000D+00
EXPONENTS  0.5000000D+00 0.5000000D+00 0.5000000D+00 0.5000000D+00 0.5000000D+00
EXPONENTS  0.5000000D+00 0.5000000D+00 0.3387000D+02 0.5095000D+01 0.1159000D+01
EXPONENTS  0.3258000D+00 0.1027000D+00 0.2526000D-01 0.1407000D+01 0.1407000D+01
EXPONENTS  0.1407000D+01 0.3880000D+00 0.3880000D+00 0.3880000D+00 0.1020000D+00
EXPONENTS  0.1020000D+00 0.1020000D+00 0.1057000D+01 0.1057000D+01 0.1057000D+01
EXPONENTS  0.1057000D+01 0.1057000D+01 0.1057000D+01 0.2470000D+00 0.2470000D+00
EXPONENTS  0.2470000D+00 0.2470000D+00 0.2470000D+00 0.2470000D+00 0.3387000D+02
EXPONENTS  0.5095000D+01 0.1159000D+01 0.3258000D+00 0.1027000D+00 0.2526000D-01
EXPONENTS  0.1407000D+01 0.1407000D+01 0.1407000D+01 0.3880000D+00 0.3880000D+00
EXPONENTS  0.3880000D+00 0.1020000D+00 0.1020000D+00 0.1020000D+00 0.1057000D+01
EXPONENTS  0.1057000D+01 0.1057000D+01 0.1057000D+01 0.1057000D+01 0.1057000D+01
EXPONENTS  0.2470000D+00 0.2470000D+00 0.2470000D+00 0.2470000D+00 0.2470000D+00
EXPONENTS  0.2470000D+00
MO    1     MO 0.0        OCC NO =    2.0000000  ORB. ENERGY =    0.000000
 -0.59457105D-01 -0.11081827D+00 -0.18790795D+00 -0.28437869D+00 -0.35474000D+00
 -0.30441970D+00 -0.11657657D+00 -0.93974438D-03 -0.10082840D-01 -0.37167249D-01
 -0.10867485D+00 -0.13095848D+00  0.15775337D+00  0.89836962D-01  0.52818746D-02
 -0.40459357D-02  0.14621615D+00  0.14178048D+00  0.95644273D-01 -0.11108965D+00
 -0.10771959D+00 -0.72666999D-01 -0.11871337D+01 -0.11511203D+01 -0.77653898D+00
  0.33011892D-01 -0.18894166D-01 -0.25965889D+00  0.54020736D-02 -0.50345231D-04
 -0.29354159D-01  0.17305559D-03  0.11019062D-04 -0.62614519D-03 -0.44173473D-01
  0.17461373D-01  0.26712099D-01 -0.21856981D-03 -0.58318354D-02  0.14246466D-01
 -0.69473989D-02 -0.16492213D-02  0.85966202D-02  0.50281920D-04 -0.14622919D-02
 -0.10021955D-02  0.71667446D-03 -0.12348186D-02  0.51814410D-03  0.14121300D-04
 -0.94634969D-04 -0.69385590D-03 -0.87356372D-03 -0.47748611D-04  0.12731622D-02
  0.20453637D-02  0.10528688D-03  0.16247791D-01  0.57532740D-03  0.37958956D-04
 -0.20067278D-01  0.78807591D-04 -0.23732836D-04 -0.15601963D-03 -0.60370417D-03
  0.31503058D-04 -0.15606770D-03  0.12829745D-04  0.39695449D-04  0.62412658D-03
  0.17982828D-02 -0.47889417D-04  0.36013750D-01  0.64952281D-01  0.95772100D-01
  0.58472657D-01  0.56166765D-02  0.26012539D-04  0.21723402D-02  0.37485847D-01
  0.11726585D-01  0.11896925D-02  0.11875621D-01  0.12731553D-02  0.18107926D-03
 -0.93699626D-04 -0.96165931D-03 -0.51510722D-02  0.80538820D-02 -0.29028098D-02
  0.10990613D-02  0.76124365D-03  0.12761215D-01  0.37480216D-04  0.13527949D-03
 -0.17275970D-03  0.11993914D-03  0.72926238D-04 -0.70313619D-03  0.28053714D-01
  0.50596028D-01  0.74603814D-01  0.43003759D-01  0.46668672D-02  0.52311190D-04
  0.19694734D-02 -0.28584596D-01  0.46312025D-02  0.10836517D-02 -0.94026404D-02
 -0.47132217D-03  0.16990034D-03  0.15843413D-04 -0.88729814D-03 -0.31022868D-02
  0.60168629D-02 -0.29145761D-02 -0.10262745D-02  0.66893939D-03 -0.63289793D-02
 -0.10453557D-03  0.19711265D-03 -0.92577079D-04 -0.10993404D-03  0.59620625D-04
  0.48369555D-03
MO    2     MO 0.0        OCC NO =    2.0000000  ORB. ENERGY =    0.000000
  0.54500136D-01  0.10157929D+00  0.17224196D+00  0.26066990D+00  0.32516515D+00
  0.27904007D+00  0.10685752D+00 -0.65572602D-04 -0.70355098D-03 -0.25934214D-02
 -0.75830120D-02 -0.91378982D-02  0.11007567D-01  0.12367306D-01  0.40601778D-02
 -0.13975953D-03 -0.11410431D+00 -0.11064280D+00 -0.74638981D-01  0.14485867D+01
  0.14046418D+01  0.94756308D+00 -0.85753892D-01 -0.83152430D-01 -0.56094138D-01
 -0.25761856D-01  0.29645083D+00 -0.21685869D-01 -0.42156760D-02  0.25124459D-01
 -0.39367160D-02 -0.13504931D-03  0.21364884D-03 -0.84458831D-04 -0.33796383D-02
  0.18990572D-02  0.14805811D-02  0.17056774D-03  0.45510540D-02 -0.13086567D+00
 -0.11583471D-02  0.61038531D-03  0.54796182D-03 -0.39239059D-04  0.11411449D-02
 -0.15809666D-01 -0.13203799D-03  0.55655031D-04  0.76382961D-04 -0.11019996D-04
  0.73851339D-04  0.16152604D-02  0.68171260D-03  0.76146651D-02  0.21192105D-03
 -0.15961632D-02 -0.14677140D-01  0.17899063D-02 -0.44897462D-03 -0.81668555D-02
 -0.24256695D-02 -0.61499953D-04  0.18520656D-04  0.16603413D-03  0.46578558D-04
 -0.24584390D-04 -0.68705583D-03  0.17311950D-03 -0.30977577D-04  0.18895343D-03
 -0.31285518D-03  0.37371995D-04 -0.35900255D-01 -0.64747588D-01 -0.95470280D-01
 -0.68641332D-01 -0.75553909D-02  0.10534141D-03 -0.16952532D-02 -0.23321317D-01
 -0.28507843D-01 -0.92841355D-03 -0.79618255D-02 -0.11069357D-01 -0.14131083D-03
  0.28291562D-03 -0.23400727D-03  0.74798746D-02 -0.50311813D-02 -0.24486933D-02
 -0.85768668D-03 -0.59406014D-03 -0.22261541D-01 -0.11441379D-03  0.29863921D-03
 -0.18422542D-03 -0.93598240D-04 -0.56910256D-04 -0.39645838D-03  0.40200437D-01
  0.72503144D-01  0.10690584D+00  0.73404474D-01  0.88859593D-02 -0.10107080D-03
 -0.15369398D-02 -0.26123328D-01  0.24926981D-01 -0.84566127D-03 -0.96545870D-02
  0.99514165D-02 -0.13258701D-03  0.13906311D-03  0.11551303D-03 -0.73360248D-02
  0.62710437D-02  0.10649811D-02  0.80088522D-03 -0.52202764D-03 -0.20806385D-01
 -0.26251828D-04 -0.86540676D-04  0.11279250D-03  0.85790442D-04 -0.46526808D-04
 -0.68699346D-03
MO    3     MO 0.0        OCC NO =    2.0000000  ORB. ENERGY =    0.000000
  0.48512081D+00  0.90418543D+00  0.15331735D+01  0.23202950D+01  0.28943851D+01
  0.24838131D+01  0.95116845D+00  0.15889217D-03  0.17048087D-02  0.62842457D-02
  0.18374766D-01  0.22142486D-01 -0.26672971D-01  0.40834793D-01 -0.54778047D-02
 -0.34514006D-03  0.45278448D+00  0.43904864D+00  0.29617962D+00 -0.14000141D+00
 -0.13575428D+00 -0.91579033D-01 -0.40777880D-01 -0.39540826D-01 -0.26674008D-01
  0.10222723D+00 -0.29744187D-01 -0.78304532D-02  0.16728488D-01 -0.28178482D-02
 -0.12995703D-02  0.53589762D-03 -0.32671673D-04 -0.32212652D-04 -0.20502885D-02
  0.12062681D-02  0.84402037D-03 -0.67684055D-03 -0.18059323D-01  0.13929953D-01
  0.37496965D-03 -0.74801562D-03  0.37304597D-03  0.15570697D-03 -0.45282487D-02
  0.20444561D-02  0.55007171D-04 -0.79091950D-04  0.24084779D-04  0.43729135D-04
 -0.29305413D-03 -0.86409427D-04 -0.27051465D-02 -0.75721955D-03  0.44767599D-03
  0.63338351D-02  0.19493611D-02  0.12529250D-02  0.17816043D-02  0.32229760D-03
 -0.25959529D-02  0.24404182D-03 -0.73492975D-04 -0.27831030D-04 -0.17239216D-03
  0.97554860D-04  0.64905158D-04 -0.27098256D-03  0.12292407D-03  0.18587931D-04
  0.78815903D-03 -0.14829816D-03  0.29305639D-02  0.52853927D-02  0.77933084D-02
  0.55330748D-02  0.64944037D-03 -0.11592668D-04  0.67270406D-02  0.36964451D-03
  0.92101745D-03  0.36840960D-02 -0.18764128D-03  0.68023318D-04  0.56074436D-03
 -0.89928793D-04 -0.78954424D-04  0.71498098D-03 -0.83023589D-03  0.11525491D-03
  0.34034402D-02  0.23573273D-02 -0.17085833D-02  0.26618041D-04 -0.31958738D-04
  0.53406969D-05  0.37141304D-03  0.22582915D-03 -0.53302948D-04 -0.43816770D-02
 -0.79025349D-02 -0.11652283D-01 -0.68790685D-02 -0.51239313D-03  0.23516476D-04
  0.60988271D-02  0.34973950D-02 -0.35255281D-02  0.33557215D-02  0.11394442D-02
 -0.14180881D-02  0.52612682D-03 -0.29312184D-04 -0.66661395D-04  0.16390893D-02
 -0.14751704D-02 -0.16391888D-03 -0.31780428D-02  0.20714906D-02  0.44225935D-02
  0.87267537D-06  0.29259916D-04 -0.30132592D-04 -0.34043043D-03  0.18462594D-03
  0.10277502D-03
MO    4     MO 0.0        OCC NO =    2.0000000  ORB. ENERGY =    0.000000
 -0.84786332D-01 -0.15802778D+00 -0.26795831D+00 -0.40552641D+00 -0.50586223D+00
 -0.43410505D+00 -0.16623917D+00 -0.13900030D-02 -0.14913820D-01 -0.54975150D-01
 -0.16074411D+00 -0.19370447D+00  0.23333756D+00  0.13343532D+00  0.10192662D+00
  0.10713647D-01  0.43501148D+00  0.42181481D+00  0.28455378D+00  0.29043382D-01
  0.28162311D-01  0.18998129D-01  0.11027265D+01  0.10692738D+01  0.72132577D+00
  0.98214542D-01  0.57773161D-02  0.23724117D+00  0.16071850D-01  0.62414700D-04
  0.33362438D-01  0.51486220D-03 -0.48414029D-05  0.70732516D-03  0.11312758D-01
  0.17603953D-01 -0.28916711D-01 -0.65027276D-03 -0.17350446D-01 -0.35803173D-02
 -0.65910708D-03  0.86938420D-02 -0.80347349D-02  0.14959505D-03 -0.43505029D-02
 -0.31509440D-03 -0.56358414D-03  0.10275310D-02 -0.46394688D-03  0.42012650D-04
 -0.28155097D-03  0.24259690D-03 -0.25989623D-02  0.14538888D-03  0.20119724D-02
  0.60852152D-02 -0.37114642D-03 -0.79604170D-02  0.17116716D-02 -0.65020215D-04
  0.19244997D-02  0.23446252D-03 -0.70608180D-04  0.86058182D-04  0.13080808D-03
  0.93725571D-04 -0.82250204D-04  0.15623292D-04  0.11809897D-03 -0.17592434D-03
 -0.40804754D-03 -0.14247706D-03 -0.36213494D-02 -0.65312528D-02 -0.96303284D-02
 -0.29605909D-01 -0.89842035D-02 -0.14881625D-03  0.64629863D-02 -0.23885306D-02
  0.14828903D-01  0.35394854D-02 -0.83232868D-02  0.31548645D-02  0.53873364D-03
 -0.52758865D-03  0.81568687D-03  0.84229703D-03 -0.45231393D-02  0.36808423D-02
  0.32698461D-02  0.22647959D-02  0.14654992D-02  0.15932411D-03 -0.35387611D-03
  0.19455201D-03  0.35683409D-03  0.21696476D-03  0.34393156D-03 -0.21275007D-02
 -0.38370350D-02 -0.56577059D-02 -0.24689479D-01 -0.88732906D-02 -0.16771360D-03
  0.58594319D-02  0.29351978D-03  0.15090417D-01  0.32240005D-02  0.76101037D-02
  0.35255115D-02  0.50547494D-03  0.60319721D-03  0.75565058D-03  0.58408322D-03
 -0.40578916D-02  0.34738084D-02 -0.30532962D-02  0.19901791D-02 -0.25522019D-02
  0.23189516D-03 -0.40251658D-03  0.17062143D-03 -0.32706763D-03  0.17737888D-03
 -0.25922245D-03
MO    5     MO 0.0        OCC NO =    2.0000000  ORB. ENERGY =    0.000000
 -0.10081977D+00 -0.18791148D+00 -0.31863032D+00 -0.48221310D+00 -0.60152283D+00
 -0.51619608D+00 -0.19767568D+00  0.39799822D-03  0.42702597D-02  0.15740981D-01
  0.46025706D-01  0.55463213D-01 -0.66811318D-01 -0.53010431D-01 -0.25326888D-01
 -0.23596214D-02  0.16649498D+01  0.16144413D+01  0.10890925D+01  0.13951733D+00
  0.13528488D+00  0.91262382D-01 -0.17864916D+00 -0.17322959D+00 -0.11685966D+00
  0.37590337D+00  0.28555491D-01 -0.38538850D-01  0.61512915D-01  0.24762893D-02
 -0.60552954D-02  0.19705681D-02  0.23824371D-04 -0.12684692D-03  0.12495290D-02
 -0.63308487D-02  0.50813197D-02 -0.24888343D-02 -0.66406573D-01 -0.13072579D-01
  0.60097199D-03 -0.18814026D-02  0.12804306D-02  0.57255559D-03 -0.16650983D-01
 -0.14691388D-02  0.60304338D-04 -0.13470394D-03  0.74399598D-04  0.16079795D-03
 -0.10775997D-02  0.13174783D-03 -0.99471896D-02  0.69399041D-03 -0.74471170D-03
  0.23290369D-01 -0.14482762D-02  0.43491667D-03  0.65512002D-02 -0.63369506D-03
  0.17992184D-02  0.89737478D-03 -0.27024361D-03  0.10164247D-04  0.68914743D-04
  0.35872242D-03 -0.29541240D-04  0.80349661D-04  0.45200842D-03 -0.95150080D-06
 -0.28709389D-03 -0.54531239D-03 -0.54738893D-02 -0.98723848D-02 -0.14556826D-01
 -0.36086966D-02  0.11596888D-02  0.46969712D-04  0.24736238D-01 -0.43667563D-02
 -0.71084722D-02  0.13546919D-01  0.63713647D-03 -0.17132165D-02  0.20619329D-02
  0.18992030D-03 -0.12323190D-03  0.55047589D-03  0.35547520D-03 -0.90595109D-03
  0.12514910D-01  0.86682113D-02 -0.25645954D-02 -0.59999029D-04  0.10973698D-03
 -0.49737955D-04  0.13657360D-02  0.83040436D-03 -0.40786322D-04  0.20388482D-02
  0.36771468D-02  0.54219507D-02  0.95755834D-02  0.26568620D-02  0.25903538D-04
  0.22426213D-01 -0.30782050D-03 -0.16823816D-02  0.12339442D-01 -0.21341288D-02
  0.18791242D-03  0.19346395D-02 -0.14149044D-03 -0.93465629D-04 -0.82867649D-03
  0.13627764D-02 -0.53409994D-03 -0.11686094D-01  0.76171512D-02 -0.14060147D-02
 -0.53444764D-04  0.73969307D-04 -0.20524543D-04 -0.12518088D-02  0.67889457D-03
 -0.49781207D-04
END DATA
 TOTAL ENERGY =    -76.464282576523 THE VIRIAL(-V/T)=   2.00561458
