 72
GAUSSIAN              5 MOL ORBITALS    126 PRIMITIVES        3 NUCLEI   B3LYP   B3LYP   B3LYP
  O    1    (CENTRE  1)   0.00000000  0.00000000  0.10264236  CHARGE =  8.0
  H    2    (CENTRE  2)   0.00000000 -1.44255835 -1.09730160  CHARGE =  1.0
  H    3    (CENTRE  3)   0.00000000  1.34807204 -1.09730160  CHARGE =  1.0
CENTRE ASSIGNMENTS    1  1  1  1  1  1  1  1  1  1  1  1  1  1  1  1  1  1  1  1
CENTRE ASSIGNMENTS    1  1  1  1  1  1  1  1  1  1  1  1  1  1  1  1  1  1  1  1
CENTRE ASSIGNMENTS    1  1  1  1  1  1  1  1  1  1  1  1  1  1  1  1  1  1  1  1
CENTRE ASSIGNMENTS    1  1  1  1  1  1  1  1  1  1  1  1  2  2  2  2  2  2  2  2
CENTRE ASSIGNMENTS    2  2  2  2  2  2  2  2  2  2  2  2  2  2  2  2  2  2  2  3
CENTRE ASSIGNMENTS    3  3  3  3  3  3  3  3  3  3  3  3  3  3  3  3  3  3  3  3
CENTRE ASSIGNMENTS    3  3  3  3  3  3
TYPE ASSIGNMENTS      1  1  1  1  1  1  1  1  1  1  1  1  1  1  1  1  2  2  2  3
TYPE ASSIGNMENTS      3  3  4  4  4  2  3  4  2  3  4  2  3  4  5  6  7  8  9 10
TYPE ASSIGNMENTS      5  6  7  8  9 10  5  6  7  8  9 10 11 12 13 17 14 15 18 19
TYPE ASSIGNMENTS     16 20 11 12 13 17 14 15 18 19 16 20  1  1  1  1  1  1  2  3
TYPE ASSIGNMENTS      4  2  3  4  2  3  4  5  6  7  8  9 10  5  6  7  8  9 10  1
TYPE ASSIGNMENTS      1  1  1  1  1  2  3  4  2  3  4  2  3  4  5  6  7  8  9 10
TYPE ASSIGNMENTS      5  6  7  8  9 10
EXPONENTS  0.1533000D+05 0.2299000D+04 0.5224000D+03 0.1473000D+03 0.4755000D+02
EXPONENTS  0.1676000D+02 0.6207000D+01 0.5224000D+03 0.1473000D+03 0.4755000D+02
EXPONENTS  0.1676000D+02 0.6207000D+01 0.6882000D+00 0.1752000D+01 0.2384000D+00
EXPONENTS  0.7376000D-01 0.3446000D+02 0.7749000D+01 0.2280000D+01 0.3446000D+02
EXPONENTS  0.7749000D+01 0.2280000D+01 0.3446000D+02 0.7749000D+01 0.2280000D+01
EXPONENTS  0.7156000D+00 0.7156000D+00 0.7156000D+00 0.2140000D+00 0.2140000D+00
EXPONENTS  0.2140000D+00 0.5974000D-01 0.5974000D-01 0.5974000D-01 0.2314000D+01
EXPONENTS  0.2314000D+01 0.2314000D+01 0.2314000D+01 0.2314000D+01 0.2314000D+01
EXPONENTS  0.6450000D+00 0.6450000D+00 0.6450000D+00 0.6450000D+00 0.6450000D+00
EXPONENTS  0.6450000D+00 0.2140000D+00 0.2140000D+00 0.2140000D+00 0.2140000D+00
EXPONENTS  0.2140000D+00 0.2140000D+00 0.1428000D+01 0.1428000D+01 0.1428000D+01
EXPONENTS  0.1428000D+01 0.1428000D+01 0.1428000D+01 0.1428000D+01 0.1428000D+01
EXPONENTS  0.1428000D+01 0.1428000D+01 0.5000000D+00 0.5000000D+00 0.5000000D+00
EXPONENTS  0.5000000D+00 0.5000000D+00 0.5000000D+00 0.5000000D+00 0.5000000D+00
EXPONENTS  0.5000000D+00 0.5000000D+00 0.3387000D+02 0.5095000D+01 0.1159000D+01
EXPONENTS  0.3258000D+00 0.1027000D+00 0.2526000D-01 0.1407000D+01 0.1407000D+01
EXPONENTS  0.1407000D+01 0.3880000D+00 0.3880000D+00 0.3880000D+00 0.1020000D+00
EXPONENTS  0.1020000D+00 0.1020000D+00 0.1057000D+01 0.1057000D+01 0.1057000D+01
EXPONENTS  0.1057000D+01 0.1057000D+01 0.1057000D+01 0.2470000D+00 0.2470000D+00
EXPONENTS  0.2470000D+00 0.2470000D+00 0.2470000D+00 0.2470000D+00 0.3387000D+02
EXPONENTS  0.5095000D+01 0.1159000D+01 0.3258000D+00 0.1027000D+00 0.2526000D-01
EXPONENTS  0.1407000D+01 0.1407000D+01 0.1407000D+01 0.3880000D+00 0.3880000D+00
EXPONENTS  0.3880000D+00 0.1020000D+00 0.1020000D+00 0.1020000D+00 0.1057000D+01
EXPONENTS  0.1057000D+01 0.1057000D+01 0.1057000D+01 0.1057000D+01 0.1057000D+01
EXPONENTS  0.2470000D+00 0.2470000D+00 0.2470000D+00 0.2470000D+00 0.2470000D+00
EXPONENTS  0.2470000D+00
MO    1     MO 0.0        OCC NO =    2.0000000  ORB. ENERGY =    0.000000
 -0.77032583D-02 -0.14357607D-01 -0.24345340D-01 -0.36844083D-01 -0.45960090D-01
 -0.39440595D-01 -0.15103653D-01  0.25275363D-04  0.27118805D-03  0.99965023D-03
  0.29229186D-02  0.35222591D-02 -0.42429343D-02 -0.26945771D-02  0.49203325D-01
  0.87620998D-02  0.46889660D-01  0.45467197D-01  0.30671903D-01  0.22156936D+00
  0.21484775D+00  0.14493502D+00  0.15334895D+01  0.14869690D+01  0.10031005D+01
  0.10589475D-01  0.49216029D-01  0.33254378D+00  0.17497311D-02  0.63869285D-02
  0.39275102D-01  0.56168904D-04  0.81644143D-04  0.70238886D-03  0.44129163D-01
  0.12507973D-02 -0.45379960D-01  0.47728198D-04 -0.19542138D-02 -0.17800967D-01
  0.64414118D-02  0.62616266D-02 -0.12703038D-01 -0.12538680D-04 -0.51634676D-03
 -0.46720479D-02 -0.69809067D-03  0.12380093D-02 -0.53991859D-03 -0.37612163D-05
 -0.35245024D-04 -0.43511566D-03 -0.28072718D-03  0.11252113D-02  0.27883547D-02
  0.52120962D-03 -0.30587227D-02 -0.19578257D-01  0.32097191D-03 -0.31691125D-03
  0.11213193D-01 -0.21306047D-04 -0.12173420D-04 -0.10230390D-03  0.74440691D-03
  0.18362916D-04 -0.31704819D-03 -0.46938921D-03  0.18157344D-04  0.62395988D-03
 -0.17638315D-02  0.14021060D-04 -0.34983895D-01 -0.63094896D-01 -0.93033387D-01
 -0.66515507D-01 -0.10587442D-01 -0.91533400D-04  0.60811736D-03 -0.28132784D-01
 -0.64735520D-02  0.32977357D-03 -0.13262455D-01 -0.24688685D-02  0.51384427D-04
 -0.24284485D-03  0.84238931D-03  0.50382433D-02 -0.69642633D-02  0.19260201D-02
  0.29994090D-03  0.23345402D-03 -0.11258899D-01  0.21765337D-03 -0.21378257D-03
 -0.38707963D-05  0.29756959D-04  0.18528979D-04  0.73773757D-06 -0.25803482D-01
 -0.46537643D-01 -0.68619727D-01 -0.51074601D-01 -0.78055617D-02 -0.12296306D-03
  0.66386788D-03  0.26973575D-01 -0.98228276D-03  0.35887932D-03  0.12143847D-01
  0.23639685D-03  0.54670509D-04  0.27975094D-03  0.97797918D-03  0.37952554D-02
 -0.69244211D-02  0.31291657D-02 -0.31337196D-03  0.26374102D-03  0.83511351D-02
  0.52490581D-04 -0.19672765D-03  0.14423707D-03 -0.32337873D-04  0.22990965D-04
 -0.48462184D-03
MO    2     MO 0.0        OCC NO =    2.0000000  ORB. ENERGY =    0.000000
 -0.12088967D+00 -0.22531847D+00 -0.38205912D+00 -0.57820586D+00 -0.72126623D+00
 -0.61895373D+00 -0.23702640D+00 -0.21415443D-03 -0.22977365D-02 -0.84698895D-02
 -0.24765460D-01 -0.29843584D-01  0.35949759D-01  0.83987553D-02  0.51269439D-03
 -0.65699043D-03  0.68268713D+00  0.66197687D+00  0.44656569D+00  0.12986581D+01
  0.12592615D+01  0.84949036D+00 -0.20614520D+00 -0.19989150D+00 -0.13484563D+00
  0.15417681D+00  0.27154926D+00 -0.42856586D-01  0.25475103D-01  0.27957760D-01
 -0.33146461D-02  0.81778772D-03  0.31494943D-03 -0.58039122D-04 -0.78415817D-02
  0.75497213D-03  0.70866096D-02  0.69489579D-03 -0.28452256D-01 -0.12422327D+00
 -0.10160724D-02 -0.81151929D-03  0.18275917D-02 -0.18255614D-03 -0.75177190D-02
 -0.17389588D-01  0.22736703D-03 -0.22920009D-03  0.18330558D-05 -0.54761198D-04
 -0.51314777D-03  0.41248888D-03 -0.40872302D-02  0.52099522D-02 -0.27910241D-03
  0.75885196D-02 -0.13411406D-01  0.25427769D-02  0.46731709D-02 -0.22184506D-02
 -0.17054697D-02 -0.31020409D-03 -0.17723816D-03  0.86789207D-04 -0.17050898D-03
  0.26735375D-03 -0.89490748D-03 -0.23198820D-04  0.26436073D-03  0.63453986D-03
  0.53472576D-03  0.20413877D-03 -0.26519155D-01 -0.47828388D-01 -0.70522930D-01
 -0.49878004D-01 -0.68919285D-02  0.12389326D-03  0.88538475D-02 -0.90724657D-02
 -0.20650245D-01  0.48013182D-02 -0.38447117D-02 -0.90332030D-02  0.74812842D-03
  0.25753511D-03 -0.29965603D-03  0.47039522D-02 -0.57755150D-03 -0.41264007D-02
  0.43669712D-02  0.33989595D-02 -0.14423813D-01  0.16581114D-03  0.63616890D-04
 -0.22942803D-03  0.43324463D-03  0.26977154D-03 -0.71728385D-03  0.38808094D-01
  0.69991996D-01  0.10320316D+00  0.69990224D-01  0.80435540D-02 -0.11532747D-03
  0.96655438D-02 -0.21339054D-01  0.29732042D-01  0.52250815D-02 -0.74966298D-02
  0.11155184D-01  0.79597192D-03  0.37844174D-03  0.36228215D-04 -0.73359164D-02
  0.23780842D-02  0.49578323D-02 -0.45625198D-02  0.38399212D-02 -0.21301031D-01
 -0.79671511D-04 -0.15037192D-03  0.23004343D-03 -0.47082129D-03  0.33473555D-03
 -0.35025148D-03
MO    3     MO 0.0        OCC NO =    2.0000000  ORB. ENERGY =    0.000000
  0.45528781D+00  0.84858162D+00  0.14388894D+01  0.21776061D+01  0.27163919D+01
  0.23310684D+01  0.89267537D+00  0.10013424D-02  0.10743746D-01  0.39603472D-01
  0.11579823D+00  0.13954250D+00 -0.16809372D+00 -0.49459057D-01 -0.53546625D-01
 -0.41193185D-02  0.27682929D+00  0.26843129D+00  0.18108216D+00  0.29068916D+00
  0.28187070D+00  0.19014831D+00 -0.20901445D+00 -0.20267371D+00 -0.13672248D+00
  0.62518619D-01  0.62268790D-01 -0.41364538D-01  0.10330142D-01  0.67911548D-02
 -0.70271419D-02  0.33161251D-03  0.80692943D-04 -0.12054318D-03  0.41790891D-02
 -0.88374215D-02  0.46583325D-02  0.28177989D-03 -0.11537375D-01 -0.27784848D-01
  0.27150488D-02 -0.35430709D-02  0.82802211D-03 -0.74026422D-04 -0.30484313D-02
 -0.49051498D-02  0.18273152D-03 -0.21357690D-03  0.30845387D-04 -0.22205638D-04
 -0.20808116D-03 -0.29040190D-04 -0.16573698D-02  0.12128554D-02 -0.10560237D-02
  0.30771409D-02 -0.36036934D-02 -0.15539152D-04  0.18949684D-02 -0.34872878D-04
  0.31836103D-02 -0.12578760D-03 -0.71869984D-04  0.16572183D-04 -0.66575185D-04
  0.10841181D-03 -0.29292721D-03 -0.38605646D-03  0.10719814D-03  0.24321067D-03
  0.58578201D-03  0.82778168D-04 -0.13538998D-01 -0.24418141D-01 -0.36004535D-01
 -0.12204594D-01  0.12870272D-02  0.98087135D-04  0.35902307D-02 -0.10022408D-01
 -0.14019704D-01  0.19469321D-02 -0.31587185D-03 -0.35963437D-02  0.30336569D-03
  0.32042936D-03 -0.13214407D-03  0.24127399D-02 -0.48217932D-03 -0.19305606D-02
  0.17708046D-02  0.13782763D-02 -0.77228094D-02 -0.87902090D-05  0.93009002D-04
 -0.84218793D-04  0.17568048D-03  0.10939222D-03 -0.14749992D-03  0.46651816D-03
  0.84138470D-03  0.12406213D-02  0.13343275D-01  0.42978511D-02  0.32216729D-04
  0.39193731D-02  0.44541493D-02 -0.44877117D-02  0.21187679D-02 -0.15496508D-02
  0.40543626D-03  0.32276621D-03 -0.94552208D-04 -0.90678084D-04  0.32384688D-03
 -0.12881280D-03 -0.19503408D-03 -0.18500995D-02  0.15570861D-02  0.15675406D-02
 -0.53561009D-04  0.12386832D-04  0.41174177D-04 -0.19091779D-03  0.13573510D-03
 -0.83585507D-04
MO    4     MO 0.0        OCC NO =    2.0000000  ORB. ENERGY =    0.000000
  0.16033161D+00  0.29883177D+00  0.50671125D+00  0.76685360D+00  0.95658942D+00
  0.82089604D+00  0.31435957D+00 -0.13097436D-02 -0.14052689D-01 -0.51800857D-01
 -0.15146267D+00 -0.18251988D+00  0.21986454D+00  0.15419132D+00  0.74969136D-01
  0.58405332D-02  0.71946398D+00  0.69763804D+00  0.47062250D+00 -0.21861960D+00
 -0.21198747D+00 -0.14300550D+00  0.28060662D+00  0.27209403D+00  0.18355303D+00
  0.16248243D+00 -0.46308430D-01  0.57495980D-01  0.26847465D-01 -0.49257775D-02
  0.98508354D-02  0.86184254D-03 -0.50637052D-04  0.16255665D-03 -0.94072266D-02
  0.14975097D-01 -0.55678701D-02  0.73233032D-03 -0.29984999D-01  0.19322040D-01
 -0.33786495D-02  0.45216409D-02 -0.11429914D-02 -0.19239057D-03 -0.79227039D-02
  0.34751714D-02 -0.16672832D-03  0.22292969D-03 -0.56201367D-04 -0.57711223D-04
 -0.54079141D-03 -0.51235008D-05 -0.43074122D-02 -0.10569981D-02  0.20355171D-02
  0.79973186D-02  0.23992554D-02  0.18150122D-02  0.49249179D-02  0.77173876D-03
 -0.79215634D-02 -0.32691500D-03 -0.18678611D-03  0.52680394D-05 -0.70303450D-04
  0.28175629D-03  0.27511028D-03  0.12079438D-04  0.27860203D-03 -0.29091440D-03
  0.19883091D-03  0.21513587D-03  0.14060964D-01  0.25359527D-01  0.37392608D-01
  0.85567108D-02 -0.28766553D-02 -0.10859891D-03  0.93308106D-02  0.11655093D-01
  0.16243222D-01  0.50599686D-02 -0.65463774D-03  0.34844341D-02  0.78843063D-03
 -0.41558214D-03  0.13235943D-03 -0.15669792D-02 -0.34876728D-03  0.19157465D-02
  0.46022231D-02  0.35820639D-02  0.51201957D-02  0.36916536D-04 -0.12488221D-03
  0.87965670D-04  0.45658383D-03  0.28430433D-03  0.84986406D-04  0.38917110D-02
  0.70188611D-02  0.10349307D-01 -0.11757490D-01 -0.55703592D-02 -0.72905290D-04
  0.10186234D-01 -0.71326300D-02  0.91518935D-02  0.55065604D-02  0.26914731D-02
 -0.98474370D-04  0.83885150D-03  0.31041673D-03  0.49629165D-04  0.37860991D-03
 -0.85016658D-03  0.47155667D-03 -0.48083060D-02  0.40467805D-02  0.54674989D-03
  0.96596754D-04 -0.79075197D-04 -0.17521557D-04 -0.49618477D-03  0.35276800D-03
  0.16249117D-03
MO    5     MO 0.0        OCC NO =    2.0000000  ORB. ENERGY =    0.000000
 -0.10801234D+00 -0.20131725D+00 -0.34136169D+00 -0.51661461D+00 -0.64443601D+00
 -0.55302197D+00 -0.21177804D+00  0.55207862D-03  0.59234413D-02  0.21834920D-01
  0.63844025D-01  0.76935155D-01 -0.92676547D-01 -0.70089817D-01 -0.28466039D-01
 -0.20607946D-02  0.14674137D+01  0.14228977D+01  0.95987838D+00 -0.55890769D+00
 -0.54195245D+00 -0.36559792D+00 -0.51244691D-01 -0.49690112D-01 -0.33520656D-01
  0.33139802D+00 -0.11694826D+00 -0.11074311D-01  0.54757904D-01 -0.12076999D-01
 -0.32170426D-02  0.17578080D-02 -0.13952904D-03 -0.52402389D-04  0.60619659D-02
 -0.60662134D-02  0.42474955D-05  0.14936558D-02 -0.61157196D-01  0.54129559D-01
  0.14112145D-02 -0.13710678D-02 -0.40146717D-04 -0.39239847D-03 -0.16159092D-01
  0.74609819D-02 -0.36198192D-04 -0.19377111D-05  0.38135903D-04 -0.11770741D-03
 -0.11029944D-02 -0.17000868D-03 -0.87853679D-02 -0.21703559D-02 -0.75803318D-03
  0.16311275D-01  0.58406479D-02 -0.14443353D-02  0.10044828D-01  0.67041973D-03
  0.37184348D-02 -0.66677356D-03 -0.38096764D-03 -0.42817311D-04  0.10256825D-03
  0.57466816D-03  0.34684628D-03  0.92699181D-04  0.56823477D-03 -0.21839435D-03
 -0.40040394D-03  0.43878963D-03  0.91155634D-02  0.16440294D-01  0.24241204D-01
  0.23437361D-01  0.47122604D-02 -0.19973070D-04  0.19031056D-01  0.12960686D-02
  0.44948815D-02  0.10320277D-01  0.25930233D-02  0.32514786D-02  0.16080776D-02
  0.31254412D-04  0.72525883D-04 -0.20363045D-02  0.75319302D-03  0.12831115D-02
  0.93866622D-02  0.73059525D-02  0.60166949D-02 -0.10053712D-03  0.20917340D-04
  0.79619782D-04  0.93124520D-03  0.57986513D-03  0.31983721D-03 -0.19226317D-01
 -0.34675455D-01 -0.51128938D-01 -0.27682223D-01 -0.15723779D-02  0.87250424D-04
  0.20775771D-01  0.11722493D-01 -0.17441401D-01  0.11231142D-01  0.20723553D-02
 -0.52255017D-02  0.17109157D-02 -0.31936022D-03 -0.55331154D-04  0.30449020D-02
 -0.44396501D-03 -0.26009370D-02 -0.98069876D-02  0.82537854D-02  0.90792730D-02
 -0.18680341D-05  0.11267728D-03 -0.11080924D-03 -0.10120150D-02  0.71950316D-03
  0.11453369D-03
END DATA
 TOTAL ENERGY =    -76.464403031786 THE VIRIAL(-V/T)=   2.00633837
