 73
GAUSSIAN              5 MOL ORBITALS    126 PRIMITIVES        3 NUCLEI   B3LYP   B3LYP   B3LYP
  O    1    (CENTRE  1)   0.00000000  0.00000000  0.00815606  CHARGE =  8.0
  H    2    (CENTRE  2)   0.09448631 -1.44255835 -1.09730160  CHARGE =  1.0
  H    3    (CENTRE  3)   0.00000000  1.53704465 -1.09730160  CHARGE =  1.0
CENTRE ASSIGNMENTS    1  1  1  1  1  1  1  1  1  1  1  1  1  1  1  1  1  1  1  1
CENTRE ASSIGNMENTS    1  1  1  1  1  1  1  1  1  1  1  1  1  1  1  1  1  1  1  1
CENTRE ASSIGNMENTS    1  1  1  1  1  1  1  1  1  1  1  1  1  1  1  1  1  1  1  1
CENTRE ASSIGNMENTS    1  1  1  1  1  1  1  1  1  1  1  1  2  2  2  2  2  2  2  2
CENTRE ASSIGNMENTS    2  2  2  2  2  2  2  2  2  2  2  2  2  2  2  2  2  2  2  3
CENTRE ASSIGNMENTS    3  3  3  3  3  3  3  3  3  3  3  3  3  3  3  3  3  3  3  3
CENTRE ASSIGNMENTS    3  3  3  3  3  3
TYPE ASSIGNMENTS      1  1  1  1  1  1  1  1  1  1  1  1  1  1  1  1  2  2  2  3
TYPE ASSIGNMENTS      3  3  4  4  4  2  3  4  2  3  4  2  3  4  5  6  7  8  9 10
TYPE ASSIGNMENTS      5  6  7  8  9 10  5  6  7  8  9 10 11 12 13 17 14 15 18 19
TYPE ASSIGNMENTS     16 20 11 12 13 17 14 15 18 19 16 20  1  1  1  1  1  1  2  3
TYPE ASSIGNMENTS      4  2  3  4  2  3  4  5  6  7  8  9 10  5  6  7  8  9 10  1
TYPE ASSIGNMENTS      1  1  1  1  1  2  3  4  2  3  4  2  3  4  5  6  7  8  9 10
TYPE ASSIGNMENTS      5  6  7  8  9 10
EXPONENTS  0.1533000D+05 0.2299000D+04 0.5224000D+03 0.1473000D+03 0.4755000D+02
EXPONENTS  0.1676000D+02 0.6207000D+01 0.5224000D+03 0.1473000D+03 0.4755000D+02
EXPONENTS  0.1676000D+02 0.6207000D+01 0.6882000D+00 0.1752000D+01 0.2384000D+00
EXPONENTS  0.7376000D-01 0.3446000D+02 0.7749000D+01 0.2280000D+01 0.3446000D+02
EXPONENTS  0.7749000D+01 0.2280000D+01 0.3446000D+02 0.7749000D+01 0.2280000D+01
EXPONENTS  0.7156000D+00 0.7156000D+00 0.7156000D+00 0.2140000D+00 0.2140000D+00
EXPONENTS  0.2140000D+00 0.5974000D-01 0.5974000D-01 0.5974000D-01 0.2314000D+01
EXPONENTS  0.2314000D+01 0.2314000D+01 0.2314000D+01 0.2314000D+01 0.2314000D+01
EXPONENTS  0.6450000D+00 0.6450000D+00 0.6450000D+00 0.6450000D+00 0.6450000D+00
EXPONENTS  0.6450000D+00 0.2140000D+00 0.2140000D+00 0.2140000D+00 0.2140000D+00
EXPONENTS  0.2140000D+00 0.2140000D+00 0.1428000D+01 0.1428000D+01 0.1428000D+01
EXPONENTS  0.1428000D+01 0.1428000D+01 0.1428000D+01 0.1428000D+01 0.1428000D+01
EXPONENTS  0.1428000D+01 0.1428000D+01 0.5000000D+00 0.5000000D+00 0.5000000D+00
EXPONENTS  0.5000000D+00 0.5000000D+00 0.5000000D+00 0.5000000D+00 0.5000000D+00
EXPONENTS  0.5000000D+00 0.5000000D+00 0.3387000D+02 0.5095000D+01 0.1159000D+01
EXPONENTS  0.3258000D+00 0.1027000D+00 0.2526000D-01 0.1407000D+01 0.1407000D+01
EXPONENTS  0.1407000D+01 0.3880000D+00 0.3880000D+00 0.3880000D+00 0.1020000D+00
EXPONENTS  0.1020000D+00 0.1020000D+00 0.1057000D+01 0.1057000D+01 0.1057000D+01
EXPONENTS  0.1057000D+01 0.1057000D+01 0.1057000D+01 0.2470000D+00 0.2470000D+00
EXPONENTS  0.2470000D+00 0.2470000D+00 0.2470000D+00 0.2470000D+00 0.3387000D+02
EXPONENTS  0.5095000D+01 0.1159000D+01 0.3258000D+00 0.1027000D+00 0.2526000D-01
EXPONENTS  0.1407000D+01 0.1407000D+01 0.1407000D+01 0.3880000D+00 0.3880000D+00
EXPONENTS  0.3880000D+00 0.1020000D+00 0.1020000D+00 0.1020000D+00 0.1057000D+01
EXPONENTS  0.1057000D+01 0.1057000D+01 0.1057000D+01 0.1057000D+01 0.1057000D+01
EXPONENTS  0.2470000D+00 0.2470000D+00 0.2470000D+00 0.2470000D+00 0.2470000D+00
EXPONENTS  0.2470000D+00
MO    1     MO 0.0        OCC NO =    2.0000000  ORB. ENERGY =    0.000000
  0.16585415D-01  0.30912487D-01  0.52416466D-01  0.79326747D-01  0.98953864D-01
  0.84917137D-01  0.32518752D-01 -0.27436673D-03 -0.29437750D-02 -0.10851309D-01
 -0.31728590D-01 -0.38234494D-01  0.46057500D-01  0.29345323D-01 -0.94140420D-03
 -0.21724044D-02 -0.89409935D+00 -0.86697562D+00 -0.58485663D+00  0.10969410D+01
  0.10636637D+01  0.71754127D+00 -0.56011756D+00 -0.54312562D+00 -0.36638934D+00
 -0.20151021D+00  0.23090081D+00 -0.12519278D+00 -0.33113515D-01  0.22905771D-01
 -0.16249487D-01 -0.10697177D-02  0.22126541D-03 -0.34438986D-03 -0.19242005D-01
  0.51019852D-02  0.14140020D-01  0.40674016D-02  0.35196587D-01 -0.10107038D+00
 -0.38261630D-02 -0.56967880D-03  0.43958418D-02  0.29648662D-03  0.90548799D-02
 -0.15760951D-01  0.69996134D-04 -0.35399700D-03  0.28400086D-03 -0.59897030D-04
  0.62927309D-03  0.29106345D-03  0.52464092D-02  0.52674796D-02 -0.17697182D-04
 -0.12182768D-01 -0.11772216D-01  0.85954434D-02 -0.35564594D-02 -0.40302226D-02
 -0.85423518D-02 -0.20566012D-03  0.24401707D-03  0.43109182D-04 -0.18411166D-03
 -0.45168668D-03 -0.84456876D-03  0.34712294D-03 -0.28036452D-03  0.71524122D-03
  0.20521204D-03  0.12136921D-03 -0.15820353D-01 -0.28532659D-01 -0.42071388D-01
 -0.30937310D-01 -0.33615971D-02  0.12396971D-03 -0.11332731D-01 -0.33660625D-02
 -0.18673377D-01 -0.63017625D-02 -0.89082420D-03 -0.83680645D-02 -0.10246228D-02
  0.31768535D-03 -0.53666567D-03  0.39798787D-02  0.29834775D-04 -0.40097134D-02
 -0.53557848D-02 -0.35173644D-02 -0.12061701D-01  0.13325765D-04  0.27008745D-03
 -0.28341321D-03 -0.63234157D-03 -0.36881595D-03 -0.59109778D-03  0.40916793D-01
  0.73795121D-01  0.10881086D+00  0.71751982D-01  0.94547733D-02 -0.68728118D-04
 -0.11245492D-01 -0.26278180D-01  0.19813788D-01 -0.61651162D-02 -0.10093186D-01
  0.76004053D-02 -0.96935397D-03  0.93989240D-04 -0.23169149D-03 -0.62643635D-02
  0.55224523D-02  0.74191123D-03  0.58175685D-02 -0.41424782D-02 -0.17112977D-01
 -0.19141902D-03  0.83094670D-04  0.10832435D-03  0.59532914D-03 -0.34068433D-03
 -0.57887915D-03
MO    2     MO 0.0        OCC NO =    2.0000000  ORB. ENERGY =    0.000000
  0.72841724D-01  0.13576500D+00  0.23020863D+00  0.34839628D+00  0.43459690D+00
  0.37294880D+00  0.14281958D+00  0.24170354D-03  0.25933203D-02  0.95594671D-02
  0.27951321D-01  0.33682701D-01 -0.40574383D-01 -0.16090421D-01  0.28490208D-01
  0.64775595D-02  0.37603757D+00  0.36462995D+00  0.24597721D+00  0.81277942D+00
  0.78812263D+00  0.53166287D+00  0.12160931D+01  0.11792013D+01  0.79548220D+00
  0.85883075D-01  0.16828739D+00  0.26461880D+00  0.15152301D-01  0.15770200D-01
  0.31804245D-01  0.52138415D-03  0.17282780D-03  0.64553789D-03  0.35834413D-01
 -0.47657063D-02 -0.31068707D-01  0.54059781D-02 -0.96206608D-02 -0.77264956D-01
  0.52419603D-02  0.41340979D-02 -0.93760582D-02  0.59966933D-03 -0.31804921D-02
 -0.96995738D-02 -0.59028116D-03  0.10865996D-02 -0.49631839D-03 -0.10081867D-03
 -0.37064417D-03  0.73445758D-03 -0.17659243D-02  0.37110211D-02  0.58926674D-03
  0.43307969D-02 -0.88089037D-02 -0.14838264D-01  0.96697594D-03 -0.23241598D-02
  0.13070464D-01 -0.20473365D-02 -0.92452101D-04  0.18218881D-03  0.52909367D-03
  0.20849692D-03 -0.48036977D-03 -0.27118244D-03  0.68859380D-04 -0.66196668D-04
 -0.13160986D-02 -0.99570429D-04 -0.45601256D-01 -0.82243743D-01 -0.12126835D+00
 -0.84777665D-01 -0.11324994D-01 -0.95234534D-05  0.82475123D-02 -0.35403121D-01
 -0.18306123D-01  0.41866720D-02 -0.14417293D-01 -0.63165718D-02  0.50234799D-03
  0.11161239D-04  0.73064257D-03  0.71742535D-02 -0.79519739D-02  0.77772038D-03
  0.49852351D-02  0.35604921D-02 -0.19485249D-01  0.97997410D-04 -0.13002478D-03
  0.32027370D-04  0.34327433D-03  0.21754965D-03  0.47782855D-04 -0.32713349D-02
 -0.58999873D-02 -0.86995278D-02 -0.68928443D-02 -0.25821037D-02 -0.16205079D-03
  0.49163803D-02  0.10645978D-01  0.11768997D-01  0.27364989D-02  0.59704272D-02
  0.54961469D-02  0.45222963D-03  0.42342051D-03  0.84927030D-03 -0.48630169D-03
 -0.35899789D-02  0.40762805D-02 -0.26111111D-02  0.18262775D-02 -0.42059938D-02
  0.13880334D-03 -0.35773973D-03  0.21893639D-03 -0.24579711D-03  0.18245617D-03
 -0.56964813D-03
MO    3     MO 0.0        OCC NO =    2.0000000  ORB. ENERGY =    0.000000
 -0.25691267D-01 -0.47884297D-01 -0.81194554D-01 -0.12287932D+00 -0.15328227D+00
 -0.13153899D+00 -0.50372446D-01 -0.24473897D-04 -0.26258886D-03 -0.96795197D-03
 -0.28302348D-02 -0.34105705D-02  0.41083936D-02 -0.11662294D-02 -0.21852064D-01
 -0.43394523D-02  0.14946586D+01  0.14493160D+01  0.97770004D+00  0.49087074D+00
  0.47597950D+00  0.32109296D+00 -0.67674159D+00 -0.65621170D+00 -0.44267653D+00
  0.33762553D+00  0.10515204D+00 -0.14797118D+00  0.55862862D-01  0.11734795D-01
 -0.18115495D-01  0.18144130D-02  0.16670885D-03 -0.33163213D-03 -0.17639810D-01
  0.17168908D-02  0.15922919D-01 -0.13424739D-02 -0.60150724D-01 -0.41205611D-01
 -0.24302194D-02 -0.25019565D-02  0.49321759D-02  0.64775860D-03 -0.15958486D-01
 -0.72981269D-02  0.31836565D-03 -0.59376502D-03  0.27539937D-03  0.18563556D-03
 -0.10943881D-02 -0.88175369D-04 -0.88709378D-02  0.29292905D-02 -0.75649213D-04
  0.18488205D-01 -0.74708780D-02  0.70292861D-02  0.81246084D-02 -0.13169935D-02
 -0.68023384D-02  0.13593361D-02 -0.38244449D-03  0.67480702D-06 -0.23066003D-03
  0.59279792D-03 -0.43847119D-03  0.16349913D-03  0.55453556D-03  0.43644676D-03
  0.52848097D-03 -0.52012514D-03  0.28438513D-02  0.51290030D-02  0.75627119D-02
  0.74781634D-02  0.21925032D-02  0.95473500D-04  0.20571925D-01  0.81316703D-02
 -0.66696352D-02  0.11190418D-01  0.47390429D-02 -0.27845570D-02  0.17482943D-02
  0.33986456D-03 -0.46619260D-03 -0.63389888D-03  0.30709727D-02 -0.24370738D-02
  0.10088951D-01  0.79044785D-02 -0.92924445D-03 -0.13305623D-03  0.28169866D-03
 -0.14864243D-03  0.10608390D-02  0.70292648D-03 -0.26907021D-03  0.24723091D-01
  0.44589113D-01  0.65746621D-01  0.46396761D-01  0.73371873D-02  0.23935969D-04
  0.18960205D-01 -0.16957465D-01  0.77597012D-02  0.10403044D-01 -0.78573219D-02
  0.32833837D-02  0.16519563D-02 -0.67150484D-04 -0.32511803D-03 -0.35979613D-02
  0.41814151D-02 -0.58345381D-03 -0.98260618D-02  0.68308607D-02 -0.90173373D-02
 -0.16728169D-03  0.14488236D-03  0.22399324D-04 -0.99376829D-03  0.54708339D-03
 -0.21654000D-03
MO    4     MO 0.0        OCC NO =    2.0000000  ORB. ENERGY =    0.000000
  0.32266153D+00  0.60138804D+00  0.10197379D+01  0.15432649D+01  0.19251014D+01
  0.16520234D+01  0.63263719D+00  0.15264866D-02  0.16378199D-01  0.60373127D-01
  0.17652748D+00  0.21272420D+00 -0.25624884D+00 -0.11944989D+00 -0.90738312D-01
 -0.79556264D-02 -0.10325418D+00 -0.10012182D+00 -0.67541587D-01 -0.31299281D-02
 -0.30349774D-02 -0.20473778D-02 -0.56354585D+00 -0.54644990D+00 -0.36863188D+00
 -0.23704257D-01 -0.17162905D-02 -0.11801527D+00 -0.39820517D-02 -0.36456835D-03
 -0.18306459D-01 -0.13989831D-03 -0.68151546D-05 -0.36757616D-03  0.22621762D-02
 -0.16867782D-01  0.14605605D-01  0.13847003D-02  0.39817079D-02 -0.11861178D-03
  0.32087654D-02 -0.70919237D-02  0.38831584D-02  0.59291577D-03  0.12632214D-02
  0.74937682D-03  0.31634371D-03 -0.53363568D-03  0.21729198D-03  0.42274594D-04
  0.10352038D-03  0.20952867D-04  0.64949730D-03 -0.17386209D-03 -0.22181748D-02
 -0.17852912D-02  0.63572922D-03  0.20751167D-02 -0.16320071D-03 -0.11414294D-03
  0.45794076D-02 -0.18040620D-03  0.41316031D-04 -0.22816717D-04 -0.11152154D-03
 -0.72359739D-04  0.11576122D-03 -0.25424380D-03 -0.51588352D-04 -0.47311068D-04
  0.58880842D-03 -0.28925709D-05 -0.66927829D-02 -0.12070710D-01 -0.17798254D-01
  0.86072795D-02  0.60987864D-02  0.12188379D-03 -0.84802411D-03 -0.85084855D-02
 -0.14981657D-01 -0.95760503D-03  0.31995280D-02 -0.26168906D-02 -0.14991810D-03
  0.44924207D-03 -0.33798081D-03  0.11096934D-02  0.95958539D-03 -0.20692788D-02
 -0.65791011D-03 -0.22681905D-03 -0.50406582D-02 -0.11932283D-03  0.20933064D-03
 -0.90007809D-04 -0.11186446D-03 -0.61123701D-04 -0.48172919D-04 -0.60803761D-02
 -0.10966209D-01 -0.16169668D-01  0.85737127D-02  0.62654505D-02  0.13207879D-03
 -0.12775888D-02  0.77334027D-02 -0.13442060D-01 -0.67262922D-03 -0.35175127D-02
 -0.24411583D-02 -0.11145168D-03 -0.52073085D-03 -0.30982192D-03  0.65409707D-03
  0.12716536D-02 -0.19257506D-02  0.63102053D-03 -0.48636327D-03  0.39090010D-02
 -0.14800097D-03  0.25117461D-03 -0.10317364D-03  0.58566178D-04 -0.53126317D-04
  0.28529479D-04
MO    5     MO 0.0        OCC NO =    2.0000000  ORB. ENERGY =    0.000000
  0.38585714D+00  0.71917426D+00  0.12194610D+01  0.18455246D+01  0.23021464D+01
  0.19755842D+01  0.75654378D+00 -0.76488793D-03 -0.82067456D-02 -0.30251609D-01
 -0.88453931D-01 -0.10659129D+00  0.12840050D+00  0.12473732D+00  0.43777500D-01
  0.33814669D-02  0.15674250D+00  0.15198750D+00  0.10252987D+00 -0.16269760D+00
 -0.15776195D+00 -0.10642528D+00  0.14085329D+00  0.13658031D+00  0.92136272D-01
  0.35409020D-01 -0.34198181D-01  0.30002530D-01  0.57567478D-02 -0.33628747D-02
  0.58697229D-02  0.18857968D-03 -0.38893458D-04  0.11465325D-03 -0.78074529D-02
  0.11758232D-01 -0.39507796D-02 -0.21903171D-02 -0.71130446D-02  0.16805265D-01
 -0.19290024D-02  0.27454660D-02 -0.81646368D-03 -0.36108253D-03 -0.18260461D-02
  0.22279626D-02 -0.23090021D-04  0.72782965D-04 -0.49692945D-04  0.99936843D-05
 -0.11295130D-03 -0.64627054D-04 -0.10685803D-02 -0.61722560D-03  0.15468616D-02
  0.24711172D-02  0.17986019D-02  0.16510662D-02  0.73462368D-03  0.53074953D-04
 -0.62916511D-02  0.77062831D-03 -0.35971819D-04 -0.27883363D-04 -0.17125985D-03
  0.44590363D-04  0.47480968D-04 -0.15761869D-03  0.63325093D-04  0.36169121D-04
  0.67139824D-03 -0.96556041D-04  0.10867303D-01  0.19599628D-01  0.28899640D-01
  0.82665676D-02 -0.17755995D-02 -0.74633375D-04  0.14122431D-02  0.90883400D-02
  0.11078062D-01  0.11114090D-02 -0.34325233D-03  0.21601973D-02  0.19396147D-03
 -0.32740869D-03  0.39318619D-04 -0.67106185D-03 -0.44487588D-03  0.11159377D-02
  0.95599736D-03  0.57408640D-03  0.28409393D-02  0.60182356D-04 -0.12041021D-03
  0.60227855D-04  0.12679198D-03  0.74405998D-04 -0.16243421D-04  0.17845377D-02
  0.32184872D-02  0.47456574D-02 -0.64946693D-02 -0.33092532D-02 -0.34614909D-04
  0.19321816D-02 -0.43793618D-02  0.46902799D-02  0.10406423D-02  0.15724785D-02
  0.16416780D-03  0.16575921D-03  0.21550741D-03  0.39273725D-04  0.70913963D-03
 -0.11403563D-02  0.43121669D-03 -0.96904999D-03  0.71514943D-03  0.11168367D-02
  0.65517776D-04 -0.82640375D-04  0.17122599D-04 -0.99944730D-04  0.60395966D-04
  0.10226534D-03
END DATA
 TOTAL ENERGY =    -76.464667775453 THE VIRIAL(-V/T)=   2.00694506
