 73
GAUSSIAN              5 MOL ORBITALS    126 PRIMITIVES        3 NUCLEI   B3LYP   B3LYP   B3LYP
  O    1    (CENTRE  1)   0.00000000  0.00000000  0.00815606  CHARGE =  8.0
  H    2    (CENTRE  2)  -0.09448631 -1.44255835 -1.09730160  CHARGE =  1.0
  H    3    (CENTRE  3)   0.00000000  1.53704465 -1.09730160  CHARGE =  1.0
CENTRE ASSIGNMENTS    1  1  1  1  1  1  1  1  1  1  1  1  1  1  1  1  1  1  1  1
CENTRE ASSIGNMENTS    1  1  1  1  1  1  1  1  1  1  1  1  1  1  1  1  1  1  1  1
CENTRE ASSIGNMENTS    1  1  1  1  1  1  1  1  1  1  1  1  1  1  1  1  1  1  1  1
CENTRE ASSIGNMENTS    1  1  1  1  1  1  1  1  1  1  1  1  2  2  2  2  2  2  2  2
CENTRE ASSIGNMENTS    2  2  2  2  2  2  2  2  2  2  2  2  2  2  2  2  2  2  2  3
CENTRE ASSIGNMENTS    3  3  3  3  3  3  3  3  3  3  3  3  3  3  3  3  3  3  3  3
CENTRE ASSIGNMENTS    3  3  3  3  3  3
TYPE ASSIGNMENTS      1  1  1  1  1  1  1  1  1  1  1  1  1  1  1  1  2  2  2  3
TYPE ASSIGNMENTS      3  3  4  4  4  2  3  4  2  3  4  2  3  4  5  6  7  8  9 10
TYPE ASSIGNMENTS      5  6  7  8  9 10  5  6  7  8  9 10 11 12 13 17 14 15 18 19
TYPE ASSIGNMENTS     16 20 11 12 13 17 14 15 18 19 16 20  1  1  1  1  1  1  2  3
TYPE ASSIGNMENTS      4  2  3  4  2  3  4  5  6  7  8  9 10  5  6  7  8  9 10  1
TYPE ASSIGNMENTS      1  1  1  1  1  2  3  4  2  3  4  2  3  4  5  6  7  8  9 10
TYPE ASSIGNMENTS      5  6  7  8  9 10
EXPONENTS  0.1533000D+05 0.2299000D+04 0.5224000D+03 0.1473000D+03 0.4755000D+02
EXPONENTS  0.1676000D+02 0.6207000D+01 0.5224000D+03 0.1473000D+03 0.4755000D+02
EXPONENTS  0.1676000D+02 0.6207000D+01 0.6882000D+00 0.1752000D+01 0.2384000D+00
EXPONENTS  0.7376000D-01 0.3446000D+02 0.7749000D+01 0.2280000D+01 0.3446000D+02
EXPONENTS  0.7749000D+01 0.2280000D+01 0.3446000D+02 0.7749000D+01 0.2280000D+01
EXPONENTS  0.7156000D+00 0.7156000D+00 0.7156000D+00 0.2140000D+00 0.2140000D+00
EXPONENTS  0.2140000D+00 0.5974000D-01 0.5974000D-01 0.5974000D-01 0.2314000D+01
EXPONENTS  0.2314000D+01 0.2314000D+01 0.2314000D+01 0.2314000D+01 0.2314000D+01
EXPONENTS  0.6450000D+00 0.6450000D+00 0.6450000D+00 0.6450000D+00 0.6450000D+00
EXPONENTS  0.6450000D+00 0.2140000D+00 0.2140000D+00 0.2140000D+00 0.2140000D+00
EXPONENTS  0.2140000D+00 0.2140000D+00 0.1428000D+01 0.1428000D+01 0.1428000D+01
EXPONENTS  0.1428000D+01 0.1428000D+01 0.1428000D+01 0.1428000D+01 0.1428000D+01
EXPONENTS  0.1428000D+01 0.1428000D+01 0.5000000D+00 0.5000000D+00 0.5000000D+00
EXPONENTS  0.5000000D+00 0.5000000D+00 0.5000000D+00 0.5000000D+00 0.5000000D+00
EXPONENTS  0.5000000D+00 0.5000000D+00 0.3387000D+02 0.5095000D+01 0.1159000D+01
EXPONENTS  0.3258000D+00 0.1027000D+00 0.2526000D-01 0.1407000D+01 0.1407000D+01
EXPONENTS  0.1407000D+01 0.3880000D+00 0.3880000D+00 0.3880000D+00 0.1020000D+00
EXPONENTS  0.1020000D+00 0.1020000D+00 0.1057000D+01 0.1057000D+01 0.1057000D+01
EXPONENTS  0.1057000D+01 0.1057000D+01 0.1057000D+01 0.2470000D+00 0.2470000D+00
EXPONENTS  0.2470000D+00 0.2470000D+00 0.2470000D+00 0.2470000D+00 0.3387000D+02
EXPONENTS  0.5095000D+01 0.1159000D+01 0.3258000D+00 0.1027000D+00 0.2526000D-01
EXPONENTS  0.1407000D+01 0.1407000D+01 0.1407000D+01 0.3880000D+00 0.3880000D+00
EXPONENTS  0.3880000D+00 0.1020000D+00 0.1020000D+00 0.1020000D+00 0.1057000D+01
EXPONENTS  0.1057000D+01 0.1057000D+01 0.1057000D+01 0.1057000D+01 0.1057000D+01
EXPONENTS  0.2470000D+00 0.2470000D+00 0.2470000D+00 0.2470000D+00 0.2470000D+00
EXPONENTS  0.2470000D+00
MO    1     MO 0.0        OCC NO =    2.0000000  ORB. ENERGY =    0.000000
  0.27660107D-01  0.51553891D-01  0.87416867D-01  0.13229613D+00  0.16502900D+00
  0.14161943D+00  0.54232719D-01 -0.11224080D-03 -0.12042701D-02 -0.44391663D-02
 -0.12979862D-01 -0.15641365D-01  0.18841681D-01  0.15589846D-01  0.56670832D-01
  0.98175462D-02  0.72492288D-01  0.70293134D-01  0.47419333D-01  0.19419661D+00
  0.18830539D+00  0.12702970D+00  0.15799608D+01  0.15320305D+01  0.10334988D+01
  0.15613059D-01  0.37981217D-01  0.34384884D+00  0.18425317D-02  0.24789134D-02
  0.42834442D-01  0.34281439D-04  0.18534664D-04  0.85630306D-03  0.41194406D-01
 -0.13828702D-02 -0.39811535D-01 -0.36539152D-02 -0.77102201D-02 -0.21379859D-01
  0.55185499D-02  0.64379333D-02 -0.11956483D-01  0.30345181D-05 -0.15467124D-02
 -0.11867103D-02 -0.71943443D-03  0.13739774D-02 -0.65454301D-03  0.15797922D-03
  0.26709681D-04  0.57403608D-03 -0.81716981D-03  0.57394388D-03  0.11348159D-02
  0.74136617D-03 -0.13410203D-02 -0.17871601D-01  0.17101433D-02 -0.38081136D-03
  0.14467153D-01  0.21512008D-02 -0.15086503D-04  0.14499107D-03  0.59849607D-03
 -0.50098450D-04 -0.32304072D-04 -0.33854426D-03  0.95357959D-04 -0.40266914D-03
 -0.14569439D-02 -0.10271794D-03 -0.33354188D-01 -0.60155651D-01 -0.88699473D-01
 -0.68091722D-01 -0.11096083D-01 -0.11127477D-03 -0.11618606D-02 -0.29819513D-01
 -0.38572687D-02 -0.54854400D-03 -0.14637368D-01 -0.13428164D-02  0.30299387D-04
 -0.33644468D-03  0.10196565D-02  0.50338283D-02 -0.82396119D-02  0.32057836D-02
 -0.13833671D-02 -0.55287570D-03 -0.11712887D-01  0.16664382D-03 -0.35016041D-03
  0.18351658D-03 -0.21729760D-04  0.96673801D-05  0.30784533D-03 -0.21784412D-01
 -0.39289084D-01 -0.57931732D-01 -0.45413907D-01 -0.92226657D-02 -0.16107498D-03
  0.83161482D-03  0.20539546D-01  0.50470629D-02  0.43247788D-03  0.11710282D-01
  0.19099309D-02  0.55116758D-04  0.49158640D-03  0.97875229D-03  0.25630401D-02
 -0.65075479D-02  0.39445079D-02 -0.38971890D-03  0.22417750D-03  0.37128598D-02
  0.27186073D-03 -0.44359326D-03  0.17173253D-03 -0.54064316D-04 -0.17915350D-04
 -0.24337859D-03
MO    2     MO 0.0        OCC NO =    2.0000000  ORB. ENERGY =    0.000000
  0.74872063D-01  0.13954921D+00  0.23662530D+00  0.35810723D+00  0.44671055D+00
  0.38334411D+00  0.14680043D+00 -0.40264472D-04 -0.43201136D-03 -0.15924752D-02
 -0.46563041D-02 -0.56110729D-02  0.67591319D-02  0.12120947D-01 -0.14554289D-02
 -0.98720222D-03  0.21572738D+00  0.20918299D+00  0.14111361D+00  0.14118912D+01
  0.13690595D+01  0.92355947D+00 -0.21612317D+00 -0.20956677D+00 -0.14137251D+00
  0.47982125D-01  0.29646548D+00 -0.49727429D-01  0.73642483D-02  0.29373574D-01
 -0.73876998D-02  0.22304303D-03  0.30626854D-03 -0.15249387D-03 -0.68789473D-02
  0.18712557D-02  0.50076916D-02 -0.54186470D-02 -0.10217735D-01 -0.12994242D+00
 -0.16241664D-02 -0.22101332D-06  0.16243874D-02 -0.71833818D-03 -0.22278494D-02
 -0.19489023D-01 -0.67884360D-04 -0.67254985D-04  0.13513935D-03  0.38483731D-04
 -0.99377123D-04  0.52813307D-03 -0.14178509D-02  0.68494525D-02  0.64219112D-04
  0.37995468D-02 -0.15738923D-01  0.35225267D-02  0.45400581D-03 -0.48094340D-02
 -0.37151840D-02  0.63618168D-03 -0.71294931D-04  0.10931661D-03 -0.20437227D-04
  0.14848878D-03 -0.10369601D-02  0.20895155D-03  0.65396013D-04  0.70901028D-03
 -0.14763986D-03  0.80927051D-04 -0.31815251D-01 -0.57380115D-01 -0.84606946D-01
 -0.58457291D-01 -0.64843860D-02  0.13763958D-03  0.84379180D-03 -0.15612744D-01
 -0.26415463D-01  0.73185016D-03 -0.51119063D-02 -0.10748965D-01  0.21054485D-03
  0.40084287D-03 -0.32075023D-03  0.62798368D-02 -0.23171567D-02 -0.39626800D-02
 -0.13299370D-03 -0.57000387D-03 -0.19006081D-01  0.69652278D-05  0.27188958D-03
 -0.27885481D-03  0.12270892D-03  0.41084555D-04 -0.57056994D-03  0.40415508D-01
  0.72891033D-01  0.10747779D+00  0.72560000D-01  0.95694445D-02 -0.10922207D-03
  0.25921731D-02 -0.22531702D-01  0.23112253D-01  0.14001612D-02 -0.87003132D-02
  0.95304277D-02  0.20713209D-03  0.19892734D-03  0.32858332D-04 -0.65351313D-02
  0.45337467D-02  0.20013846D-02 -0.13068911D-02  0.99186447D-03 -0.18653621D-01
 -0.16529724D-03 -0.16067999D-04  0.18136524D-03 -0.14518668D-03  0.73454593D-04
 -0.78828097D-03
MO    3     MO 0.0        OCC NO =    2.0000000  ORB. ENERGY =    0.000000
  0.43838521D+00  0.81707795D+00  0.13854705D+01  0.20967623D+01  0.26155456D+01
  0.22445273D+01  0.85953471D+00  0.11582333D-02  0.12427083D-01  0.45808567D-01
  0.13394156D+00  0.16140610D+00 -0.19443075D+00 -0.67505566D-01 -0.60243534D-01
 -0.45158994D-02 -0.31435878D+00 -0.30482227D+00 -0.20563130D+00 -0.10999466D+00
 -0.10665782D+00 -0.71950736D-01 -0.17052202D+00 -0.16534900D+00 -0.11154346D+00
 -0.70744947D-01 -0.24427866D-01 -0.32652323D-01 -0.11730549D-01 -0.26538002D-02
 -0.65030257D-02 -0.37613613D-03 -0.23763616D-04 -0.12474755D-03  0.78818988D-02
 -0.12230090D-01  0.43481915D-02 -0.42547711D-03  0.12000356D-01  0.10324624D-01
  0.36172259D-02 -0.45895291D-02  0.97230326D-03 -0.47739209D-03  0.30292139D-02
  0.24868229D-02  0.17746673D-03 -0.22759203D-03  0.50125292D-04 -0.48574854D-04
  0.21611682D-03  0.56418133D-04  0.17930043D-02 -0.60076493D-03 -0.12812269D-02
 -0.38089249D-02  0.15669278D-02 -0.13378784D-02 -0.15700879D-02  0.23536703D-03
  0.51815591D-02  0.87729008D-04  0.68097793D-04 -0.78870948D-05 -0.50982172D-04
 -0.11993974D-03  0.17664224D-03 -0.38946848D-03 -0.84353637D-04 -0.15298095D-03
  0.54241499D-03  0.11616261D-03 -0.63268593D-02 -0.11410751D-01 -0.16825146D-01
  0.28332719D-02  0.36026182D-02  0.59874931D-04 -0.48879382D-02 -0.89782697D-02
 -0.89629405D-02 -0.23245773D-02  0.72246871D-03 -0.11065476D-02 -0.35242946D-03
  0.23603466D-03 -0.82971148D-04  0.11251306D-02 -0.48347737D-03 -0.64165318D-03
 -0.24037078D-02 -0.18773686D-02 -0.43978568D-02 -0.77895184D-04  0.82804867D-04
 -0.49096835D-05 -0.20753259D-03 -0.13364011D-03  0.59417733D-04 -0.11773332D-01
 -0.21233689D-01 -0.31309063D-01 -0.72312138D-02  0.24652060D-02  0.91372597D-04
 -0.40010016D-02  0.11131362D-01 -0.11541437D-01 -0.22187295D-02 -0.10449025D-04
 -0.24490536D-02 -0.34952465D-03 -0.33028909D-03 -0.89024551D-04  0.17700788D-02
 -0.74152207D-03 -0.10285567D-02  0.20976799D-02 -0.14532596D-02  0.59650045D-02
 -0.55566502D-04  0.12288151D-03 -0.67315004D-04  0.21577544D-03 -0.11304307D-03
  0.66684011D-04
MO    4     MO 0.0        OCC NO =    2.0000000  ORB. ENERGY =    0.000000
  0.17964280D+00  0.33482464D+00  0.56774223D+00  0.85921749D+00  0.10718061D+01
  0.91976909D+00  0.35222270D+00 -0.48363237D-03 -0.51890580D-02 -0.19127845D-01
 -0.55928696D-01 -0.67396798D-01  0.81186585D-01  0.71302045D-01  0.25643883D-01
  0.18397440D-02  0.15011181D+01  0.14555796D+01  0.98192539D+00 -0.29134615D+00
 -0.28250776D+00 -0.19057807D+00 -0.24769866D-01 -0.24018438D-01 -0.16202696D-01
  0.33921494D+00 -0.61809212D-01 -0.63123863D-02  0.56384054D-01 -0.68085819D-02
  0.10999083D-04  0.18377916D-02 -0.11516113D-03 -0.34188889D-04 -0.86055646D-02
  0.71656208D-02  0.14399439D-02  0.15360031D-03 -0.58025460D-01  0.25381528D-01
 -0.20634093D-02  0.15142717D-02  0.54913765D-03  0.71973174D-03 -0.15517246D-01
  0.37080318D-02 -0.34146251D-04 -0.37763488D-06  0.34523885D-04  0.12477768D-03
 -0.11208285D-02 -0.85710012D-04 -0.86790819D-02 -0.16964286D-02  0.53235286D-03
  0.18649784D-01  0.48378984D-02  0.33284962D-02  0.73874619D-02  0.25138742D-03
 -0.49255548D-02  0.10936973D-03 -0.39058376D-03 -0.54594063D-04 -0.13935620D-03
  0.65815090D-03  0.19054019D-03  0.16922663D-04  0.51360039D-03 -0.26757997D-04
  0.40114593D-03 -0.42308624D-03  0.11138655D-01  0.20089023D-01  0.29621252D-01
  0.13398984D-01 -0.53007316D-04 -0.54853252D-04  0.21593447D-01  0.77491676D-02
  0.86436989D-02  0.11554659D-01  0.52785772D-03  0.19188617D-02  0.17632349D-02
 -0.28262306D-03 -0.64447779D-04 -0.59460521D-03  0.16194386D-04  0.57841083D-03
  0.10695395D-01  0.80952805D-02  0.35738393D-02  0.99551530D-04 -0.12223606D-03
  0.22684529D-04  0.10820783D-02  0.69949603D-03 -0.39408782D-04 -0.16779082D-02
 -0.30261766D-02 -0.44620957D-02 -0.89471268D-02 -0.26099003D-02 -0.63864747D-05
  0.19077245D-01 -0.22008216D-02 -0.25639456D-03  0.10486055D-01  0.95402463D-03
 -0.13376584D-02  0.16669590D-02  0.42504001D-04 -0.94549338D-04  0.86403258D-03
 -0.46574629D-03 -0.39828629D-03 -0.99168570D-02  0.69157276D-02  0.23128313D-02
  0.38798107D-04  0.32107135D-06 -0.39119178D-04 -0.99884832D-03  0.56731441D-03
  0.17374737D-03
MO    5     MO 0.0        OCC NO =    2.0000000  ORB. ENERGY =    0.000000
  0.16856213D+00  0.31417210D+00  0.53272294D+00  0.80621953D+00  0.10056953D+01
  0.86303620D+00  0.33049702D+00 -0.12082581D-02 -0.12963817D-01 -0.47787070D-01
 -0.13972659D+00 -0.16837734D+00  0.20282834D+00  0.14463105D+00  0.62764704D-01
  0.43701818D-02 -0.89782038D+00 -0.87058376D+00 -0.58729066D+00 -0.56513224D-01
 -0.54798817D-01 -0.36966958D-01  0.12385539D+00  0.12009806D+00  0.81017445D-01
 -0.20290706D+00 -0.10667306D-01  0.24671944D-01 -0.33486698D-01 -0.41172048D-03
  0.64536876D-02 -0.10924677D-02  0.14424607D-04  0.14255128D-03 -0.12292987D-01
  0.16374763D-01 -0.40817753D-02  0.33716496D-02  0.36621084D-01  0.85133751D-02
 -0.34068419D-02  0.40870858D-02 -0.68024396D-03  0.29511453D-03  0.97156138D-02
  0.33657082D-03 -0.20973226D-04  0.67068841D-04 -0.46095614D-04 -0.75711407D-04
  0.66405510D-03 -0.13253406D-03  0.54480412D-02  0.16358050D-03  0.21093787D-02
 -0.11873270D-01 -0.51227948D-03  0.24140433D-02 -0.44708538D-02  0.21537997D-04
 -0.87421793D-02 -0.12868727D-02  0.23420705D-03 -0.18288148D-04 -0.16785022D-03
 -0.36608539D-03 -0.90142926D-04  0.21773332D-05 -0.33653576D-03  0.14500737D-03
  0.50137333D-03  0.30807542D-03  0.14557692D-01  0.26255398D-01  0.38713569D-01
  0.10070565D-01 -0.25610243D-02 -0.84140125D-04 -0.11407854D-01  0.14567346D-01
  0.14414008D-01 -0.66983440D-02  0.52963117D-03  0.26347713D-02 -0.10678876D-02
 -0.34075384D-03  0.36650052D-04 -0.17313772D-02  0.53845954D-03  0.11929177D-02
 -0.58796277D-02 -0.42687355D-02  0.53819993D-02  0.39345113D-04 -0.95870691D-04
  0.56525578D-04 -0.66495817D-03 -0.42165777D-03 -0.35506716D-04  0.93205006D-02
  0.16809907D-01  0.24786197D-01  0.21186948D-02 -0.32527975D-02 -0.62734317D-04
 -0.11319302D-01 -0.10588586D-01  0.10053683D-01 -0.61828949D-02  0.60420981D-03
  0.15736972D-02 -0.98293179D-03  0.34366468D-03  0.47687645D-04 -0.44490522D-03
 -0.34258052D-03  0.78748574D-03  0.58263695D-02 -0.41147003D-02 -0.23897622D-02
  0.65293741D-04 -0.11686881D-03  0.51575071D-04  0.58954919D-03 -0.33880004D-03
  0.50068256D-04
END DATA
 TOTAL ENERGY =    -76.464667775453 THE VIRIAL(-V/T)=   2.00694506
