 73
GAUSSIAN              5 MOL ORBITALS    126 PRIMITIVES        3 NUCLEI   B3LYP   B3LYP   B3LYP
  O    1    (CENTRE  1)   0.00000000  0.00000000  0.00815606  CHARGE =  8.0
  H    2    (CENTRE  2)  -0.09448631 -1.44255835 -1.09730160  CHARGE =  1.0
  H    3    (CENTRE  3)   0.00000000  1.34807204 -1.09730160  CHARGE =  1.0
CENTRE ASSIGNMENTS    1  1  1  1  1  1  1  1  1  1  1  1  1  1  1  1  1  1  1  1
CENTRE ASSIGNMENTS    1  1  1  1  1  1  1  1  1  1  1  1  1  1  1  1  1  1  1  1
CENTRE ASSIGNMENTS    1  1  1  1  1  1  1  1  1  1  1  1  1  1  1  1  1  1  1  1
CENTRE ASSIGNMENTS    1  1  1  1  1  1  1  1  1  1  1  1  2  2  2  2  2  2  2  2
CENTRE ASSIGNMENTS    2  2  2  2  2  2  2  2  2  2  2  2  2  2  2  2  2  2  2  3
CENTRE ASSIGNMENTS    3  3  3  3  3  3  3  3  3  3  3  3  3  3  3  3  3  3  3  3
CENTRE ASSIGNMENTS    3  3  3  3  3  3
TYPE ASSIGNMENTS      1  1  1  1  1  1  1  1  1  1  1  1  1  1  1  1  2  2  2  3
TYPE ASSIGNMENTS      3  3  4  4  4  2  3  4  2  3  4  2  3  4  5  6  7  8  9 10
TYPE ASSIGNMENTS      5  6  7  8  9 10  5  6  7  8  9 10 11 12 13 17 14 15 18 19
TYPE ASSIGNMENTS     16 20 11 12 13 17 14 15 18 19 16 20  1  1  1  1  1  1  2  3
TYPE ASSIGNMENTS      4  2  3  4  2  3  4  5  6  7  8  9 10  5  6  7  8  9 10  1
TYPE ASSIGNMENTS      1  1  1  1  1  2  3  4  2  3  4  2  3  4  5  6  7  8  9 10
TYPE ASSIGNMENTS      5  6  7  8  9 10
EXPONENTS  0.1533000D+05 0.2299000D+04 0.5224000D+03 0.1473000D+03 0.4755000D+02
EXPONENTS  0.1676000D+02 0.6207000D+01 0.5224000D+03 0.1473000D+03 0.4755000D+02
EXPONENTS  0.1676000D+02 0.6207000D+01 0.6882000D+00 0.1752000D+01 0.2384000D+00
EXPONENTS  0.7376000D-01 0.3446000D+02 0.7749000D+01 0.2280000D+01 0.3446000D+02
EXPONENTS  0.7749000D+01 0.2280000D+01 0.3446000D+02 0.7749000D+01 0.2280000D+01
EXPONENTS  0.7156000D+00 0.7156000D+00 0.7156000D+00 0.2140000D+00 0.2140000D+00
EXPONENTS  0.2140000D+00 0.5974000D-01 0.5974000D-01 0.5974000D-01 0.2314000D+01
EXPONENTS  0.2314000D+01 0.2314000D+01 0.2314000D+01 0.2314000D+01 0.2314000D+01
EXPONENTS  0.6450000D+00 0.6450000D+00 0.6450000D+00 0.6450000D+00 0.6450000D+00
EXPONENTS  0.6450000D+00 0.2140000D+00 0.2140000D+00 0.2140000D+00 0.2140000D+00
EXPONENTS  0.2140000D+00 0.2140000D+00 0.1428000D+01 0.1428000D+01 0.1428000D+01
EXPONENTS  0.1428000D+01 0.1428000D+01 0.1428000D+01 0.1428000D+01 0.1428000D+01
EXPONENTS  0.1428000D+01 0.1428000D+01 0.5000000D+00 0.5000000D+00 0.5000000D+00
EXPONENTS  0.5000000D+00 0.5000000D+00 0.5000000D+00 0.5000000D+00 0.5000000D+00
EXPONENTS  0.5000000D+00 0.5000000D+00 0.3387000D+02 0.5095000D+01 0.1159000D+01
EXPONENTS  0.3258000D+00 0.1027000D+00 0.2526000D-01 0.1407000D+01 0.1407000D+01
EXPONENTS  0.1407000D+01 0.3880000D+00 0.3880000D+00 0.3880000D+00 0.1020000D+00
EXPONENTS  0.1020000D+00 0.1020000D+00 0.1057000D+01 0.1057000D+01 0.1057000D+01
EXPONENTS  0.1057000D+01 0.1057000D+01 0.1057000D+01 0.2470000D+00 0.2470000D+00
EXPONENTS  0.2470000D+00 0.2470000D+00 0.2470000D+00 0.2470000D+00 0.3387000D+02
EXPONENTS  0.5095000D+01 0.1159000D+01 0.3258000D+00 0.1027000D+00 0.2526000D-01
EXPONENTS  0.1407000D+01 0.1407000D+01 0.1407000D+01 0.3880000D+00 0.3880000D+00
EXPONENTS  0.3880000D+00 0.1020000D+00 0.1020000D+00 0.1020000D+00 0.1057000D+01
EXPONENTS  0.1057000D+01 0.1057000D+01 0.1057000D+01 0.1057000D+01 0.1057000D+01
EXPONENTS  0.2470000D+00 0.2470000D+00 0.2470000D+00 0.2470000D+00 0.2470000D+00
EXPONENTS  0.2470000D+00
MO    1     MO 0.0        OCC NO =    2.0000000  ORB. ENERGY =    0.000000
  0.25353110D-01  0.47254029D-01  0.80125846D-01  0.12126195D+00  0.15126472D+00
  0.12980764D+00  0.49709429D-01 -0.31604438D-03 -0.33909488D-02 -0.12499676D-01
 -0.36548319D-01 -0.44042502D-01  0.53053860D-01  0.35600861D-01 -0.10465700D-02
 -0.16976401D-02  0.16190930D+01  0.15699756D+01  0.10590963D+01 -0.11061609D+00
 -0.10726040D+00 -0.72357231D-01 -0.54799281D+00 -0.53136869D+00 -0.35845818D+00
  0.36551898D+00 -0.25129203D-01 -0.11939552D+00  0.59874957D-01 -0.37715359D-02
 -0.13728011D-01  0.18953637D-02 -0.85472927D-04 -0.29633454D-03 -0.20790084D-01
  0.40971802D-02  0.16692904D-01  0.38977930D-02 -0.67102803D-01  0.58268508D-02
 -0.34504448D-02 -0.12290083D-02  0.46794531D-02 -0.42193257D-03 -0.16695959D-01
  0.20705704D-02  0.25143059D-03 -0.46689196D-03  0.21546137D-03 -0.19472001D-03
 -0.10762541D-02  0.21491154D-03 -0.95469434D-02 -0.10750772D-02 -0.61808131D-03
  0.19690598D-01  0.31167167D-02  0.89971215D-02  0.89502322D-02  0.10851481D-03
 -0.71428776D-02 -0.18533168D-02 -0.25937374D-03  0.39282645D-04 -0.30697187D-03
  0.37058565D-03  0.19616091D-03  0.73762668D-04  0.40753558D-03 -0.31400884D-03
  0.84715293D-03  0.59001177D-03  0.13912113D-01  0.25091069D-01  0.36996766D-01
  0.22451376D-01  0.23900603D-02  0.11164845D-04  0.23291313D-01  0.12092043D-01
  0.36174703D-02  0.12444744D-01  0.38375370D-02  0.35076492D-03  0.18718337D-02
 -0.10355895D-03 -0.40795911D-03 -0.11577953D-02  0.22192664D-02 -0.10614711D-02
  0.11706959D-01  0.84020084D-02  0.35787481D-02  0.49505748D-04 -0.17927572D-04
 -0.31578176D-04  0.11625368D-02  0.69299460D-03 -0.22415463D-03  0.11956660D-01
  0.21564329D-01  0.31796590D-01  0.18935197D-01  0.16286427D-02  0.15970075D-04
  0.24670320D-01 -0.13896020D-01  0.26739092D-02  0.13343839D-01 -0.43829396D-02
 -0.47843129D-03  0.20007120D-02 -0.18578502D-04 -0.46909577D-03 -0.16315346D-02
  0.30005514D-02 -0.13690169D-02 -0.11842651D-01  0.93291716D-02 -0.36377607D-02
  0.33345997D-04  0.58450544D-04 -0.91796541D-04 -0.12623124D-02  0.86971546D-03
  0.35164224D-03
MO    2     MO 0.0        OCC NO =    2.0000000  ORB. ENERGY =    0.000000
 -0.86291128D-01 -0.16083247D+00 -0.27271406D+00 -0.41272373D+00 -0.51484032D+00
 -0.44180959D+00 -0.16918960D+00 -0.38547385D-03 -0.41358814D-02 -0.15245638D-01
 -0.44577350D-01 -0.53717875D-01  0.64708873D-01  0.29597378D-01 -0.27853085D-01
 -0.64339580D-02 -0.71098816D+00 -0.68941936D+00 -0.46507822D+00 -0.16997566D+00
 -0.16481921D+00 -0.11118607D+00 -0.13133841D+01 -0.12735408D+01 -0.85912308D+00
 -0.15989716D+00 -0.37640156D-01 -0.28393656D+00 -0.25430197D-01 -0.45372843D-02
 -0.31805695D-01 -0.78187373D-03 -0.39428342D-04 -0.59781828D-03 -0.41358330D-01
  0.43510613D-02  0.37007268D-01  0.29029705D-02  0.34810897D-01  0.13827808D-01
 -0.57690489D-02 -0.47073849D-02  0.10476434D-01  0.49697278D-03  0.83766067D-02
  0.39219363D-02  0.81894266D-03 -0.12688258D-02  0.44988310D-03 -0.65110289D-04
  0.40919151D-03  0.36776887D-03  0.47070368D-02 -0.89854261D-03 -0.12543424D-02
 -0.87661650D-02  0.16052943D-02  0.16465529D-01 -0.53549455D-02  0.10903336D-02
 -0.12702501D-01 -0.18354820D-02  0.11709721D-03  0.12336408D-03 -0.63434338D-03
 -0.64425890D-04  0.25820812D-03  0.45527863D-04 -0.28686575D-03 -0.62830036D-03
  0.18575023D-02 -0.17988337D-03  0.34045472D-01  0.61402410D-01  0.90537818D-01
  0.60803757D-01  0.79256285D-02  0.54897251D-04 -0.75848087D-02  0.31012394D-01
  0.86930380D-02 -0.43659864D-02  0.12182685D-01  0.21349844D-02 -0.78198247D-03
  0.57104116D-04 -0.85626413D-03 -0.53637363D-02  0.74562414D-02 -0.20925052D-02
 -0.31257674D-02 -0.26008262D-02  0.11778613D-01 -0.11383681D-03  0.12422411D-03
 -0.10387297D-04 -0.46245096D-03 -0.28215535D-03 -0.32046813D-03  0.26132091D-01
  0.47130301D-01  0.69493602D-01  0.47193517D-01  0.55164602D-02  0.78129714D-04
 -0.10724763D-01 -0.29310059D-01  0.41287686D-02 -0.57258326D-02 -0.10649816D-01
 -0.46744977D-03 -0.84102314D-03 -0.11487613D-04 -0.99647559D-03 -0.39498006D-02
  0.69570290D-02 -0.30072283D-02  0.51222975D-02 -0.39537040D-02 -0.88761385D-02
  0.63604680D-04  0.85852475D-04 -0.14945715D-03  0.54008827D-03 -0.33420500D-03
  0.79019112D-03
MO    3     MO 0.0        OCC NO =    2.0000000  ORB. ENERGY =    0.000000
  0.50068429D+00  0.93319319D+00  0.15823602D+01  0.23947339D+01  0.29872418D+01
  0.25634979D+01  0.98168349D+00  0.33943487D-03  0.36419135D-02  0.13424779D-01
  0.39253266D-01  0.47302094D-01 -0.56980384D-01  0.23784445D-01 -0.20289852D-01
 -0.20244494D-02 -0.21020235D+00 -0.20382557D+00 -0.13749952D+00 -0.89360622D-01
 -0.86649745D-01 -0.58453406D-01 -0.23763095D+00 -0.23042209D+00 -0.15544138D+00
 -0.47212195D-01 -0.17152511D-01 -0.50762934D-01 -0.75982182D-02 -0.12749065D-02
 -0.70251196D-02 -0.23462182D-03  0.10275984D-06 -0.13252335D-03 -0.54136085D-02
 -0.11705517D-02  0.65841602D-02  0.35012166D-03  0.96808076D-02  0.71718238D-02
  0.85065021D-04 -0.17990465D-02  0.17139815D-02 -0.28443059D-04  0.22427136D-02
  0.48354324D-03  0.13896311D-03 -0.22570762D-03  0.86744506D-04 -0.10985954D-04
  0.12125887D-03 -0.11712428D-03  0.13406022D-02 -0.41096819D-03 -0.12830173D-04
 -0.26184756D-02  0.11914985D-03  0.32167831D-02 -0.14033311D-02  0.11137547D-02
 -0.31782926D-02 -0.29362517D-03  0.21754085D-04  0.20208888D-04 -0.16620811D-03
 -0.94673220D-05  0.40215949D-04 -0.28531838D-03 -0.55794934D-04 -0.10084261D-03
  0.78394270D-03 -0.84990481D-05  0.35419764D-02  0.63881003D-02  0.94192502D-02
  0.10431345D-01  0.23783774D-02  0.29459978D-04 -0.27164300D-02  0.17179139D-02
 -0.11613686D-02 -0.14178990D-02  0.17963513D-02 -0.81179655D-04 -0.23057719D-03
  0.85073228D-04 -0.15762031D-03  0.10032124D-03  0.41155431D-03 -0.51187555D-03
 -0.13863445D-02 -0.10825515D-02 -0.11695780D-02 -0.42389815D-04  0.56696365D-04
 -0.14306551D-04 -0.13548287D-03 -0.83412197D-04 -0.26806664D-04 -0.14063534D-02
 -0.25364163D-02 -0.37399443D-02  0.17494608D-03  0.73949752D-03  0.25711108D-04
 -0.31811321D-02  0.19096755D-02 -0.58981560D-02 -0.17103115D-02  0.63465122D-04
 -0.22215595D-02 -0.25252716D-03  0.26394983D-05 -0.24806445D-03  0.16751446D-02
 -0.41993038D-03 -0.12552142D-02  0.15272635D-02 -0.11853392D-02  0.55463277D-02
  0.10012556D-04  0.29475912D-04 -0.39488468D-04  0.16229507D-03 -0.10195888D-03
  0.18426548D-03
MO    4     MO 0.0        OCC NO =    2.0000000  ORB. ENERGY =    0.000000
  0.23233287D-01  0.43303026D-01  0.73426366D-01  0.11112300D+00  0.13861718D+00
  0.11895416D+00  0.45553125D-01  0.52897428D-03  0.56755469D-02  0.20921134D-01
  0.61172170D-01  0.73715439D-01 -0.88798058D-01 -0.51170182D-01 -0.43376401D-01
 -0.42819393D-02  0.65278468D-01  0.63298156D-01  0.42700562D-01  0.13719686D+01
  0.13303480D+01  0.89744492D+00 -0.45062330D+00 -0.43695302D+00 -0.29476593D+00
  0.14062086D-01  0.27983943D+00 -0.93472354D-01  0.17650526D-02  0.24897261D-01
 -0.11036355D-01  0.42646828D-04  0.22548576D-03 -0.20447303D-03 -0.59338994D-02
 -0.71650044D-02  0.13098904D-01 -0.54219142D-02 -0.44498191D-02 -0.13015007D+00
  0.55897584D-03 -0.37576924D-02  0.31987166D-02 -0.91999574D-03 -0.68155387D-03
 -0.14802195D-01  0.40822643D-03 -0.47336017D-03  0.65133735D-04 -0.51546398D-05
 -0.51594821D-05  0.14064164D-02 -0.52676751D-03  0.62113456D-02 -0.11376097D-02
  0.19658842D-02 -0.12707687D-01  0.32204374D-02 -0.38558171D-03 -0.59263498D-02
  0.19239164D-03  0.34925694D-03 -0.35017997D-04  0.12142613D-03 -0.17047886D-03
  0.91219417D-04 -0.61597029D-03 -0.19001438D-03  0.13834573D-04  0.25169189D-03
  0.70145095D-03  0.14600970D-03 -0.33248719D-01 -0.59965433D-01 -0.88418996D-01
 -0.53866819D-01 -0.48694571D-02  0.15864432D-03 -0.13925868D-02 -0.18533439D-01
 -0.31052774D-01 -0.34774869D-03 -0.44871606D-02 -0.11524966D-01  0.33624541D-04
  0.32423418D-03 -0.49467377D-03  0.63761163D-02 -0.18541095D-02 -0.45220068D-02
 -0.11477270D-02 -0.14088088D-02 -0.20450478D-01  0.48661684D-04  0.15461360D-03
 -0.20327528D-03  0.43317002D-05 -0.29082477D-04 -0.71604728D-03  0.37916827D-01
  0.68384559D-01  0.10083299D+00  0.80752359D-01  0.11123208D-01 -0.44294530D-04
  0.82829318D-03 -0.23253902D-01  0.25340286D-01  0.38301226D-03 -0.10643582D-01
  0.10552931D-01  0.44357991D-04  0.11767832D-03 -0.13475573D-03 -0.77487006D-02
  0.47018852D-02  0.30468154D-02 -0.34619009D-03  0.35515461D-03 -0.22184604D-01
 -0.24109134D-05 -0.12043955D-03  0.12285046D-03 -0.41618435D-04  0.26338407D-04
 -0.11099410D-03
MO    5     MO 0.0        OCC NO =    2.0000000  ORB. ENERGY =    0.000000
 -0.26554649D-03 -0.49493499D-03 -0.83923184D-03 -0.12700881D-02 -0.15843348D-02
 -0.13595950D-02 -0.52065266D-03 -0.15427475D-02 -0.16552668D-01 -0.61016252D-01
 -0.17840794D+00 -0.21499024D+00  0.25897853D+00  0.15951318D+00  0.91653317D-01
  0.79689160D-02 -0.16419425D+00 -0.15921319D+00 -0.10740428D+00  0.51768554D+00
  0.50198083D+00  0.33863330D+00  0.56415231D+00  0.54703797D+00  0.36902858D+00
 -0.37724563D-01  0.10487253D+00  0.12077193D+00 -0.64296754D-02  0.94194493D-02
  0.19327638D-01 -0.21989707D-03  0.96233849D-04  0.36043863D-03 -0.45822874D-02
  0.19581187D-01 -0.14998899D-01 -0.65757167D-03  0.62310934D-02 -0.49521940D-01
 -0.23382389D-02  0.59320756D-02 -0.35938367D-02  0.44211928D-03  0.19050645D-02
 -0.48456953D-02 -0.17021791D-03  0.36420816D-03 -0.19399025D-03  0.76550009D-04
  0.15003904D-03  0.50945719D-03  0.10210514D-02  0.22407021D-02  0.26081708D-02
 -0.22358113D-02 -0.47722959D-02 -0.15910509D-02 -0.82734280D-03 -0.19498104D-02
 -0.62334615D-02 -0.16013743D-04  0.23153122D-04  0.36612925D-04 -0.14172703D-03
 -0.78189288D-05 -0.10139334D-03 -0.16605092D-03 -0.61640438D-04 -0.84454375D-05
  0.59123200D-03 -0.12872509D-04 -0.59290358D-02 -0.10693260D-01 -0.15767206D-01
 -0.32706857D-01 -0.91694249D-02 -0.84052884D-04 -0.25638516D-02  0.85757745D-03
  0.58000988D-02 -0.17994369D-02 -0.64671933D-02 -0.11599222D-02 -0.24017228D-03
 -0.43259153D-03  0.24788631D-03  0.19549520D-02 -0.29664597D-02  0.10115077D-02
 -0.19198437D-02 -0.12523067D-02 -0.42138282D-02  0.15742581D-03 -0.18983822D-03
  0.32412407D-04 -0.17851589D-03 -0.10543653D-03 -0.20316939D-03  0.21261905D-01
  0.38346722D-01  0.56542219D-01  0.16667026D-01 -0.31179652D-02 -0.15301380D-03
 -0.25012790D-02 -0.16487285D-01  0.28472992D-01 -0.13612105D-02  0.97753953D-03
  0.70018620D-02 -0.21639154D-03  0.55286618D-03  0.40391977D-03 -0.34198367D-02
 -0.60498650D-03  0.40248232D-02  0.11877961D-02 -0.96907510D-03 -0.12074161D-01
  0.12686207D-03 -0.26474448D-03  0.13788242D-03  0.12841528D-03 -0.11087826D-03
 -0.10600266D-03
END DATA
 TOTAL ENERGY =    -76.464423275428 THE VIRIAL(-V/T)=   2.00486654
