 74
GAUSSIAN              5 MOL ORBITALS    126 PRIMITIVES        3 NUCLEI   B3LYP   B3LYP   B3LYP
  O    1    (CENTRE  1)   0.00000000  0.00000000  0.00815606  CHARGE =  8.0
  H    2    (CENTRE  2)   0.00000000 -1.34807204 -1.09730160  CHARGE =  1.0
  H    3    (CENTRE  3)   0.00000000  1.53704465 -1.09730160  CHARGE =  1.0
CENTRE ASSIGNMENTS    1  1  1  1  1  1  1  1  1  1  1  1  1  1  1  1  1  1  1  1
CENTRE ASSIGNMENTS    1  1  1  1  1  1  1  1  1  1  1  1  1  1  1  1  1  1  1  1
CENTRE ASSIGNMENTS    1  1  1  1  1  1  1  1  1  1  1  1  1  1  1  1  1  1  1  1
CENTRE ASSIGNMENTS    1  1  1  1  1  1  1  1  1  1  1  1  2  2  2  2  2  2  2  2
CENTRE ASSIGNMENTS    2  2  2  2  2  2  2  2  2  2  2  2  2  2  2  2  2  2  2  3
CENTRE ASSIGNMENTS    3  3  3  3  3  3  3  3  3  3  3  3  3  3  3  3  3  3  3  3
CENTRE ASSIGNMENTS    3  3  3  3  3  3
TYPE ASSIGNMENTS      1  1  1  1  1  1  1  1  1  1  1  1  1  1  1  1  2  2  2  3
TYPE ASSIGNMENTS      3  3  4  4  4  2  3  4  2  3  4  2  3  4  5  6  7  8  9 10
TYPE ASSIGNMENTS      5  6  7  8  9 10  5  6  7  8  9 10 11 12 13 17 14 15 18 19
TYPE ASSIGNMENTS     16 20 11 12 13 17 14 15 18 19 16 20  1  1  1  1  1  1  2  3
TYPE ASSIGNMENTS      4  2  3  4  2  3  4  5  6  7  8  9 10  5  6  7  8  9 10  1
TYPE ASSIGNMENTS      1  1  1  1  1  2  3  4  2  3  4  2  3  4  5  6  7  8  9 10
TYPE ASSIGNMENTS      5  6  7  8  9 10
EXPONENTS  0.1533000D+05 0.2299000D+04 0.5224000D+03 0.1473000D+03 0.4755000D+02
EXPONENTS  0.1676000D+02 0.6207000D+01 0.5224000D+03 0.1473000D+03 0.4755000D+02
EXPONENTS  0.1676000D+02 0.6207000D+01 0.6882000D+00 0.1752000D+01 0.2384000D+00
EXPONENTS  0.7376000D-01 0.3446000D+02 0.7749000D+01 0.2280000D+01 0.3446000D+02
EXPONENTS  0.7749000D+01 0.2280000D+01 0.3446000D+02 0.7749000D+01 0.2280000D+01
EXPONENTS  0.7156000D+00 0.7156000D+00 0.7156000D+00 0.2140000D+00 0.2140000D+00
EXPONENTS  0.2140000D+00 0.5974000D-01 0.5974000D-01 0.5974000D-01 0.2314000D+01
EXPONENTS  0.2314000D+01 0.2314000D+01 0.2314000D+01 0.2314000D+01 0.2314000D+01
EXPONENTS  0.6450000D+00 0.6450000D+00 0.6450000D+00 0.6450000D+00 0.6450000D+00
EXPONENTS  0.6450000D+00 0.2140000D+00 0.2140000D+00 0.2140000D+00 0.2140000D+00
EXPONENTS  0.2140000D+00 0.2140000D+00 0.1428000D+01 0.1428000D+01 0.1428000D+01
EXPONENTS  0.1428000D+01 0.1428000D+01 0.1428000D+01 0.1428000D+01 0.1428000D+01
EXPONENTS  0.1428000D+01 0.1428000D+01 0.5000000D+00 0.5000000D+00 0.5000000D+00
EXPONENTS  0.5000000D+00 0.5000000D+00 0.5000000D+00 0.5000000D+00 0.5000000D+00
EXPONENTS  0.5000000D+00 0.5000000D+00 0.3387000D+02 0.5095000D+01 0.1159000D+01
EXPONENTS  0.3258000D+00 0.1027000D+00 0.2526000D-01 0.1407000D+01 0.1407000D+01
EXPONENTS  0.1407000D+01 0.3880000D+00 0.3880000D+00 0.3880000D+00 0.1020000D+00
EXPONENTS  0.1020000D+00 0.1020000D+00 0.1057000D+01 0.1057000D+01 0.1057000D+01
EXPONENTS  0.1057000D+01 0.1057000D+01 0.1057000D+01 0.2470000D+00 0.2470000D+00
EXPONENTS  0.2470000D+00 0.2470000D+00 0.2470000D+00 0.2470000D+00 0.3387000D+02
EXPONENTS  0.5095000D+01 0.1159000D+01 0.3258000D+00 0.1027000D+00 0.2526000D-01
EXPONENTS  0.1407000D+01 0.1407000D+01 0.1407000D+01 0.3880000D+00 0.3880000D+00
EXPONENTS  0.3880000D+00 0.1020000D+00 0.1020000D+00 0.1020000D+00 0.1057000D+01
EXPONENTS  0.1057000D+01 0.1057000D+01 0.1057000D+01 0.1057000D+01 0.1057000D+01
EXPONENTS  0.2470000D+00 0.2470000D+00 0.2470000D+00 0.2470000D+00 0.2470000D+00
EXPONENTS  0.2470000D+00
MO    1     MO 0.0        OCC NO =    2.0000000  ORB. ENERGY =    0.000000
 -0.36790112D-01 -0.68570719D-01 -0.11627129D+00 -0.17596423D+00 -0.21950151D+00
 -0.18836495D+00 -0.72133771D-01 -0.52087209D-03 -0.55886157D-02 -0.20600690D-01
 -0.60235208D-01 -0.72586355D-01  0.87437956D-01  0.48971457D-01 -0.21970770D-01
 -0.66619241D-02  0.10805366D+00  0.10477570D+00  0.70681068D-01  0.10672106D+00
  0.10348353D+00  0.69809377D-01 -0.14155474D+01 -0.13726048D+01 -0.92595107D+00
  0.24388353D-01  0.28838195D-01 -0.30793247D+00  0.40070626D-02  0.56727277D-02
 -0.35636925D-01  0.12833863D-03  0.77655091D-04 -0.69621072D-03 -0.45851078D-01
  0.76637941D-02  0.38187284D-01 -0.27026873D-03 -0.44485517D-02 -0.20818910D-02
 -0.69935718D-02 -0.40946668D-02  0.11088239D-01  0.66480497D-04 -0.11303515D-02
 -0.52832087D-02  0.73735395D-03 -0.12678189D-02  0.53046494D-03  0.19124064D-04
 -0.74583257D-04 -0.10448469D-02 -0.64435131D-03  0.12887080D-02 -0.73671874D-03
  0.13466734D-02 -0.28506934D-02  0.18679473D-01  0.58638050D-03 -0.10154307D-02
 -0.16469317D-01  0.10752835D-03 -0.22313701D-04 -0.26320730D-03 -0.65061890D-03
  0.34525571D-04 -0.45121696D-03  0.23159183D-03  0.32415533D-04  0.12408389D-02
  0.17202649D-02 -0.68485411D-04  0.31777716D-01  0.57312420D-01  0.84507129D-01
  0.56664204D-01  0.65602011D-02  0.74143528D-04  0.16465517D-02  0.34667637D-01
  0.75671273D-02  0.89313569D-03  0.12555512D-01  0.30888886D-03  0.13412659D-03
  0.74513152D-04 -0.10817402D-02 -0.47337381D-02  0.77773755D-02 -0.30436374D-02
  0.79046753D-03  0.62904216D-03  0.11783614D-01  0.52921321D-04  0.18632663D-03
 -0.23924795D-03  0.84566424D-04  0.59187801D-04 -0.79989238D-03  0.33060101D-01
  0.59625254D-01  0.87917402D-01  0.56925259D-01  0.83642237D-02  0.78645639D-04
  0.13663121D-02 -0.28393060D-01  0.53608317D-02  0.74667372D-03 -0.11699633D-01
  0.10551528D-02  0.11818907D-03 -0.15838358D-03 -0.86455003D-03 -0.40767105D-02
  0.66840817D-02 -0.26073712D-02 -0.70566367D-03  0.48729719D-03 -0.83735552D-02
 -0.22955641D-03  0.25258621D-03 -0.23029802D-04 -0.71227445D-04  0.38810516D-04
  0.99373901D-04
MO    2     MO 0.0        OCC NO =    2.0000000  ORB. ENERGY =    0.000000
  0.50124711D+00  0.93424220D+00  0.15841389D+01  0.23974258D+01  0.29905997D+01
  0.25663795D+01  0.98278701D+00  0.56008308D-03  0.60093239D-02  0.22151499D-01
  0.64769685D-01  0.78050619D-01 -0.94020242D-01  0.13391325D-02 -0.31668244D-01
 -0.28171290D-02  0.19028556D+00  0.18451298D+00  0.12447137D+00 -0.51115982D-01
 -0.49565308D-01 -0.33436464D-01 -0.24339033D+00 -0.23600674D+00 -0.15920876D+00
  0.42948581D-01 -0.12744700D-01 -0.50876899D-01  0.70565510D-02 -0.16399529D-02
 -0.75361338D-02  0.22600796D-03 -0.28093977D-04 -0.14847573D-03 -0.25575027D-02
 -0.39902922D-02  0.65477949D-02 -0.47595090D-03 -0.78340259D-02  0.68596681D-02
  0.96424693D-03 -0.26898791D-02  0.17256322D-02  0.11707404D-03 -0.19905810D-02
  0.18823181D-02  0.16115566D-03 -0.25016269D-03  0.89007030D-04  0.33678019D-04
 -0.13134323D-03  0.56625620D-04 -0.11347210D-02 -0.23627703D-03 -0.40963467D-03
  0.23715302D-02  0.15606545D-02  0.23178415D-02  0.10326327D-02 -0.85182343D-03
 -0.10889375D-02  0.18936047D-03 -0.39295061D-04 -0.42877203D-04 -0.15512386D-03
  0.60800511D-04  0.88584409D-04 -0.30460712D-03  0.57084673D-04  0.40047200D-04
  0.76997869D-03 -0.12060475D-03 -0.31807488D-03 -0.57366115D-03 -0.84586303D-03
  0.54156174D-02  0.19298005D-02  0.22887460D-04  0.28996243D-02 -0.25822019D-02
 -0.53435492D-02  0.15728373D-02  0.50963692D-03 -0.14337789D-02  0.23620073D-03
  0.14224605D-04 -0.23336475D-03  0.12985210D-02 -0.35139028D-03 -0.94713072D-03
  0.13920358D-02  0.11077611D-02 -0.43926509D-02 -0.37661766D-05  0.26797594D-04
 -0.23031417D-04  0.14892387D-03  0.10423140D-03 -0.12700263D-03 -0.26407221D-02
 -0.47626511D-02 -0.70225263D-02  0.23440193D-02  0.21962899D-02  0.62961571D-04
  0.24061144D-02  0.25548429D-02 -0.52947683D-02  0.13149136D-02 -0.12943293D-02
 -0.11709740D-02  0.20813431D-03 -0.21323477D-03 -0.14170979D-03  0.76784295D-03
  0.79799259D-04 -0.84764221D-03 -0.12426938D-02  0.85814418D-03  0.29844875D-02
 -0.55817227D-04  0.10405347D-03 -0.48236244D-04 -0.12543355D-03  0.68346420D-04
  0.43336503D-04
MO    3     MO 0.0        OCC NO =    2.0000000  ORB. ENERGY =    0.000000
  0.18010997D-01  0.33569538D-01  0.56921868D-01  0.86145195D-01  0.10745934D+00
  0.92216102D-01  0.35313868D-01 -0.61890997D-04 -0.66404979D-03 -0.24478125D-02
 -0.71572603D-02 -0.86248467D-02  0.10389542D-01  0.70053145D-02  0.15402567D-01
  0.15141319D-02  0.26898425D+00  0.26082424D+00  0.17595049D+00  0.14448286D+01
  0.14009977D+01  0.94510478D+00  0.19207939D+00  0.18625240D+00  0.12564477D+00
  0.60711345D-01  0.29860060D+00  0.35690564D-01  0.99750140D-02  0.27895599D-01
  0.16502121D-02  0.31948081D-03  0.27614018D-03  0.28807989D-04  0.44898922D-02
  0.18007789D-02 -0.62906711D-02 -0.67279567D-03 -0.11074039D-01 -0.13569790D+00
 -0.77035256D-03  0.22388127D-02 -0.14684601D-02  0.16549377D-03 -0.28138497D-02
 -0.17443995D-01 -0.44241056D-03  0.38969547D-03  0.52715088D-04  0.47606644D-04
 -0.18566444D-03  0.11265961D-02 -0.16040212D-02  0.67479506D-02  0.34354021D-03
  0.33523525D-02 -0.14937487D-01 -0.99259412D-03  0.14597111D-02 -0.53063646D-02
 -0.38026512D-04  0.26767657D-03 -0.55546795D-04  0.15507578D-03  0.24825955D-03
  0.85946512D-04 -0.80232378D-03  0.37825339D-03  0.80693871D-04  0.33709644D-03
 -0.11230320D-02 -0.17048472D-03 -0.40229448D-01 -0.72555466D-01 -0.10698299D+00
 -0.77475141D-01 -0.87098923D-02  0.10286720D-03  0.40988570D-02 -0.24692719D-01
 -0.31928433D-01  0.22233346D-02 -0.85381006D-02 -0.11875364D-01  0.33388912D-03
  0.40884047D-03 -0.13406106D-04  0.79700821D-02 -0.37203338D-02 -0.42497483D-02
  0.19677568D-02  0.15659112D-02 -0.23571016D-01 -0.81838109D-04  0.28731060D-03
 -0.20547249D-03  0.21051612D-03  0.14733964D-03 -0.85368850D-04  0.34466747D-01
  0.62162197D-01  0.91658124D-01  0.60734756D-01  0.75980950D-02 -0.13872573D-03
  0.34012402D-02 -0.17389298D-01  0.23867646D-01  0.18587383D-02 -0.61043403D-02
  0.99248760D-02  0.29421492D-03  0.21343432D-03  0.30724332D-03 -0.60436174D-02
  0.31661773D-02  0.28774401D-02 -0.17566496D-02  0.12130572D-02 -0.18172072D-01
 -0.13932940D-03 -0.44411958D-04  0.18374136D-03 -0.17731062D-03  0.96613275D-04
 -0.89605196D-03
MO    4     MO 0.0        OCC NO =    2.0000000  ORB. ENERGY =    0.000000
 -0.24933678D-01 -0.46472276D-01 -0.78800275D-01 -0.11925584D+00 -0.14876226D+00
 -0.12766015D+00 -0.48887055D-01 -0.68147844D-03 -0.73118164D-02 -0.26952732D-01
 -0.78808208D-01 -0.94967722D-01  0.11439869D+00  0.67735782D-01  0.44145323D-01
  0.42608491D-02  0.15910411D+01  0.15427747D+01  0.10407467D+01 -0.24877837D+00
 -0.24123134D+00 -0.16273323D+00  0.37357577D+00  0.36224284D+00  0.24436688D+00
  0.35910744D+00 -0.51301735D-01  0.80624816D-01  0.59002180D-01 -0.50074058D-02
  0.12013635D-01  0.18897281D-02 -0.55086732D-04  0.23065983D-03  0.16255756D-02
  0.81152206D-02 -0.97407962D-02 -0.39795845D-02 -0.65502908D-01  0.23340165D-01
 -0.59991306D-03  0.31886369D-02 -0.25887238D-02  0.97889518D-03 -0.16643913D-01
  0.27694169D-02 -0.12631561D-03  0.27459289D-03 -0.14827729D-03  0.28159317D-03
 -0.10982047D-02 -0.94082415D-04 -0.94877810D-02 -0.10950038D-02  0.11999391D-02
  0.19829156D-01  0.24693687D-02 -0.23002726D-02  0.86341870D-02  0.81564279D-03
 -0.12995447D-02  0.15833062D-02 -0.32855914D-03  0.76824065D-05  0.37713324D-05
  0.50837338D-03  0.59041756D-04 -0.70327038D-04  0.47730402D-03 -0.82088975D-04
  0.59013041D-04 -0.10084166D-02  0.73732595D-02  0.13297977D-01  0.19607859D-01
  0.30832524D-02 -0.21394628D-02 -0.81020809D-04  0.24244728D-01  0.50418133D-02
  0.12685694D-01  0.13151018D-01 -0.15051770D-02  0.31661316D-02  0.19749532D-02
 -0.28746355D-03  0.26494508D-03 -0.12504998D-02 -0.85278467D-03  0.21032844D-02
  0.11639276D-01  0.92623607D-02  0.48283063D-02  0.64900035D-04 -0.15643578D-03
  0.91535744D-04  0.12452023D-02  0.87151354D-03  0.96696076D-04 -0.57288940D-02
 -0.10332296D-01 -0.15234965D-01 -0.19315489D-01 -0.50356715D-02 -0.46268239D-04
  0.20118326D-01  0.17377093D-02  0.22472781D-02  0.10994432D-01  0.38365130D-02
 -0.46592572D-03  0.17402805D-02  0.23208111D-03  0.18045905D-03  0.12110334D-02
 -0.19593600D-02  0.74832656D-03 -0.10390578D-01  0.71752302D-02  0.22792710D-02
  0.11380571D-03 -0.13575119D-03  0.21945487D-04 -0.10487918D-02  0.57146725D-03
  0.12223671D-03
MO    5     MO 0.0        OCC NO =    2.0000000  ORB. ENERGY =    0.000000
  0.75789396D-01  0.14125897D+00  0.23952444D+00  0.36249477D+00  0.45218365D+00
  0.38804084D+00  0.14859903D+00 -0.14073331D-02 -0.15099761D-01 -0.55660561D-01
 -0.16274822D+00 -0.19611951D+00  0.23624674D+00  0.15431573D+00  0.88382475D-01
  0.79441832D-02 -0.74652854D+00 -0.72388156D+00 -0.48832623D+00 -0.72006786D-02
 -0.69822360D-02 -0.47101752D-02  0.59846609D+00  0.58031079D+00  0.39147423D+00
 -0.16849593D+00 -0.82163133D-03  0.12715285D+00 -0.27684270D-01 -0.21782415D-03
  0.19119632D-01 -0.88667473D-03 -0.13827814D-04  0.36335819D-03 -0.22061642D-02
  0.18036600D-01 -0.15830436D-01  0.18672512D-02  0.30734461D-01  0.22971734D-02
 -0.23226142D-02  0.63241639D-02 -0.40015497D-02 -0.45930503D-03  0.78094501D-02
 -0.66788608D-03 -0.28081366D-03  0.47836846D-03 -0.19755481D-03 -0.13212565D-03
  0.51528594D-03  0.68615118D-04  0.44517387D-02  0.22395106D-03  0.24701087D-02
 -0.93039902D-02 -0.13414030D-03 -0.19656091D-02 -0.40512259D-02 -0.53771287D-03
 -0.54447170D-02 -0.74289925D-03  0.15416244D-03  0.23222881D-04 -0.36222763D-04
 -0.23853264D-03 -0.20598531D-03 -0.57716475D-04 -0.22395466D-03  0.13631666D-03
  0.16638476D-03  0.47315673D-03  0.57375492D-02  0.10347906D-01  0.15257982D-01
 -0.11762073D-01 -0.62565997D-02 -0.11904588D-03 -0.11375810D-01  0.62079193D-02
  0.15265419D-01 -0.61705573D-02 -0.43370983D-02  0.21482215D-02 -0.92666300D-03
 -0.45093590D-03  0.34377863D-03 -0.14758694D-03 -0.21218443D-02  0.22694312D-02
 -0.54612365D-02 -0.43459698D-02  0.23833063D-02  0.11553095D-03 -0.19608261D-03
  0.80551652D-04 -0.58425834D-03 -0.40892075D-03  0.27174437D-04  0.43211741D-02
  0.77934154D-02  0.11491386D-01 -0.10445722D-01 -0.62241227D-02 -0.12116225D-03
 -0.94396711D-02 -0.60205398D-02  0.12815682D-01 -0.51586708D-02  0.39537648D-02
  0.24373108D-02 -0.81655278D-03  0.49424986D-03  0.33405054D-03  0.90712633D-05
 -0.20472711D-02  0.20381998D-02  0.48753377D-02 -0.33666723D-02 -0.21412118D-02
  0.14489268D-03 -0.24224005D-03  0.97347369D-04  0.49210108D-03 -0.26813676D-03
 -0.36912463D-04
END DATA
 TOTAL ENERGY =    -76.463168760659 THE VIRIAL(-V/T)=   2.00578648
