 74
GAUSSIAN              5 MOL ORBITALS    126 PRIMITIVES        3 NUCLEI   B3LYP   B3LYP   B3LYP
  O    1    (CENTRE  1)   0.00000000  0.00000000  0.00815606  CHARGE =  8.0
  H    2    (CENTRE  2)   0.00000000 -1.53704465 -1.09730160  CHARGE =  1.0
  H    3    (CENTRE  3)   0.00000000  1.53704465 -1.09730160  CHARGE =  1.0
CENTRE ASSIGNMENTS    1  1  1  1  1  1  1  1  1  1  1  1  1  1  1  1  1  1  1  1
CENTRE ASSIGNMENTS    1  1  1  1  1  1  1  1  1  1  1  1  1  1  1  1  1  1  1  1
CENTRE ASSIGNMENTS    1  1  1  1  1  1  1  1  1  1  1  1  1  1  1  1  1  1  1  1
CENTRE ASSIGNMENTS    1  1  1  1  1  1  1  1  1  1  1  1  2  2  2  2  2  2  2  2
CENTRE ASSIGNMENTS    2  2  2  2  2  2  2  2  2  2  2  2  2  2  2  2  2  2  2  3
CENTRE ASSIGNMENTS    3  3  3  3  3  3  3  3  3  3  3  3  3  3  3  3  3  3  3  3
CENTRE ASSIGNMENTS    3  3  3  3  3  3
TYPE ASSIGNMENTS      1  1  1  1  1  1  1  1  1  1  1  1  1  1  1  1  2  2  2  3
TYPE ASSIGNMENTS      3  3  4  4  4  2  3  4  2  3  4  2  3  4  5  6  7  8  9 10
TYPE ASSIGNMENTS      5  6  7  8  9 10  5  6  7  8  9 10 11 12 13 17 14 15 18 19
TYPE ASSIGNMENTS     16 20 11 12 13 17 14 15 18 19 16 20  1  1  1  1  1  1  2  3
TYPE ASSIGNMENTS      4  2  3  4  2  3  4  5  6  7  8  9 10  5  6  7  8  9 10  1
TYPE ASSIGNMENTS      1  1  1  1  1  2  3  4  2  3  4  2  3  4  5  6  7  8  9 10
TYPE ASSIGNMENTS      5  6  7  8  9 10
EXPONENTS  0.1533000D+05 0.2299000D+04 0.5224000D+03 0.1473000D+03 0.4755000D+02
EXPONENTS  0.1676000D+02 0.6207000D+01 0.5224000D+03 0.1473000D+03 0.4755000D+02
EXPONENTS  0.1676000D+02 0.6207000D+01 0.6882000D+00 0.1752000D+01 0.2384000D+00
EXPONENTS  0.7376000D-01 0.3446000D+02 0.7749000D+01 0.2280000D+01 0.3446000D+02
EXPONENTS  0.7749000D+01 0.2280000D+01 0.3446000D+02 0.7749000D+01 0.2280000D+01
EXPONENTS  0.7156000D+00 0.7156000D+00 0.7156000D+00 0.2140000D+00 0.2140000D+00
EXPONENTS  0.2140000D+00 0.5974000D-01 0.5974000D-01 0.5974000D-01 0.2314000D+01
EXPONENTS  0.2314000D+01 0.2314000D+01 0.2314000D+01 0.2314000D+01 0.2314000D+01
EXPONENTS  0.6450000D+00 0.6450000D+00 0.6450000D+00 0.6450000D+00 0.6450000D+00
EXPONENTS  0.6450000D+00 0.2140000D+00 0.2140000D+00 0.2140000D+00 0.2140000D+00
EXPONENTS  0.2140000D+00 0.2140000D+00 0.1428000D+01 0.1428000D+01 0.1428000D+01
EXPONENTS  0.1428000D+01 0.1428000D+01 0.1428000D+01 0.1428000D+01 0.1428000D+01
EXPONENTS  0.1428000D+01 0.1428000D+01 0.5000000D+00 0.5000000D+00 0.5000000D+00
EXPONENTS  0.5000000D+00 0.5000000D+00 0.5000000D+00 0.5000000D+00 0.5000000D+00
EXPONENTS  0.5000000D+00 0.5000000D+00 0.3387000D+02 0.5095000D+01 0.1159000D+01
EXPONENTS  0.3258000D+00 0.1027000D+00 0.2526000D-01 0.1407000D+01 0.1407000D+01
EXPONENTS  0.1407000D+01 0.3880000D+00 0.3880000D+00 0.3880000D+00 0.1020000D+00
EXPONENTS  0.1020000D+00 0.1020000D+00 0.1057000D+01 0.1057000D+01 0.1057000D+01
EXPONENTS  0.1057000D+01 0.1057000D+01 0.1057000D+01 0.2470000D+00 0.2470000D+00
EXPONENTS  0.2470000D+00 0.2470000D+00 0.2470000D+00 0.2470000D+00 0.3387000D+02
EXPONENTS  0.5095000D+01 0.1159000D+01 0.3258000D+00 0.1027000D+00 0.2526000D-01
EXPONENTS  0.1407000D+01 0.1407000D+01 0.1407000D+01 0.3880000D+00 0.3880000D+00
EXPONENTS  0.3880000D+00 0.1020000D+00 0.1020000D+00 0.1020000D+00 0.1057000D+01
EXPONENTS  0.1057000D+01 0.1057000D+01 0.1057000D+01 0.1057000D+01 0.1057000D+01
EXPONENTS  0.2470000D+00 0.2470000D+00 0.2470000D+00 0.2470000D+00 0.2470000D+00
EXPONENTS  0.2470000D+00
MO    1     MO 0.0        OCC NO =    2.0000000  ORB. ENERGY =    0.000000
 -0.39664948D-01 -0.73928942D-01 -0.12535691D+00 -0.18971435D+00 -0.23665370D+00
 -0.20308408D+00 -0.77770415D-01  0.27998145D-04  0.30040172D-03  0.11073373D-02
  0.32377893D-02  0.39016936D-02 -0.47000034D-02 -0.76439045D-02 -0.32168615D-02
 -0.42187191D-03  0.17732585D+01  0.17194643D+01  0.11599404D+01 -0.17202395D+00
 -0.16680537D+00 -0.11252591D+00 -0.52904915D-01 -0.51299971D-01 -0.34606658D-01
  0.40073508D+00 -0.36548768D-01 -0.11641283D-01  0.66953702D-01 -0.37718841D-02
 -0.15662816D-02  0.22137019D-02 -0.42044168D-04 -0.31723288D-04 -0.87282499D-03
 -0.42375621D-03  0.12965812D-02 -0.23757221D-13 -0.67196829D-01  0.15659766D-01
 -0.11916119D-03 -0.26554358D-03  0.38470477D-03  0.25106221D-13 -0.18416048D-01
  0.25837004D-02  0.16488217D-04 -0.39823780D-04  0.23335563D-04  0.20142803D-13
 -0.13939068D-02 -0.23215678D-04 -0.10315832D-01 -0.86547215D-03 -0.86039069D-04
  0.22883103D-01  0.21153705D-02  0.45154688D-03  0.80643928D-02  0.48104593D-03
 -0.19342967D-03  0.28600692D-13 -0.55018377D-03 -0.17393783D-04 -0.48882353D-05
  0.98155545D-03  0.14923453D-03  0.31241450D-04  0.66899585D-03 -0.97053183D-04
 -0.16576744D-04 -0.34386215D-13  0.49876984D-02  0.89955195D-02  0.13263888D-01
  0.94621241D-02  0.13884087D-02 -0.98102010D-05  0.22532096D-01  0.26972311D-02
  0.24703855D-02  0.12392500D-01  0.12307019D-02  0.11095093D-02  0.19743333D-02
 -0.13825895D-04 -0.10504156D-04 -0.86247293D-03  0.68356839D-03  0.17890454D-03
  0.11733168D-01  0.82749299D-02  0.23763431D-02 -0.23281834D-04  0.15990900D-05
  0.21682744D-04  0.11760978D-02  0.69223094D-03  0.90739973D-04 -0.37638953D-02
 -0.67883402D-02 -0.10009404D-01 -0.61432766D-02 -0.54453653D-03  0.22528926D-04
  0.22532096D-01  0.17304782D-02 -0.31136710D-02  0.12392500D-01  0.35264344D-03
 -0.12153689D-02  0.19743333D-02 -0.67170105D-04 -0.48581834D-04  0.57861425D-03
 -0.11880409D-03 -0.45981016D-03 -0.11733168D-01  0.82749299D-02  0.18647793D-02
  0.59285628D-06  0.37000235D-04 -0.37593091D-04 -0.11760978D-02  0.69223094D-03
  0.92657050D-04
MO    2     MO 0.0        OCC NO =    2.0000000  ORB. ENERGY =    0.000000
 -0.12801307D+00 -0.23859531D+00 -0.40457189D+00 -0.61227653D+00 -0.76376671D+00
 -0.65542547D+00 -0.25099313D+00 -0.21789031D-04 -0.23378200D-03 -0.86176448D-03
 -0.25197488D-02 -0.30364198D-02  0.36576895D-02 -0.12785865D-01  0.76119636D-02
  0.14387490D-02  0.17406136D+00  0.16878097D+00  0.11385864D+00  0.13769991D+01
  0.13352259D+01  0.90073553D+00  0.23264619D+00  0.22558855D+00  0.15218070D+00
  0.39335772D-01  0.29256171D+00  0.50441834D-01  0.65721113D-02  0.30192779D-01
  0.64456678D-02  0.21729486D-03  0.33655071D-03  0.13337433D-03  0.65285164D-02
 -0.10691975D-02 -0.54593190D-02  0.78090443D-14 -0.65959764D-02 -0.12535164D+00
  0.76883484D-03  0.96171891D-03 -0.17305537D-02 -0.33141521D-14 -0.18077017D-02
 -0.20681732D-01 -0.10071138D-03  0.20491798D-03 -0.10420660D-03  0.11073413D-14
 -0.13682456D-03  0.18583441D-03 -0.10125922D-02  0.69278399D-02  0.60215899D-06
  0.22461834D-02 -0.16932894D-01 -0.28194699D-02  0.79159307D-03 -0.38506255D-02
  0.28176634D-02  0.49622705D-14 -0.54005512D-04  0.13923191D-03  0.11655801D-03
  0.96348543D-04 -0.11945768D-02 -0.36962206D-05  0.65667992D-04  0.77688105D-03
 -0.34597781D-03  0.29098271D-15 -0.39055574D-01 -0.70438337D-01 -0.10386129D+00
 -0.70641952D-01 -0.92772645D-02  0.10755218D-03  0.22117290D-02 -0.21251048D-01
 -0.22197437D-01  0.12164359D-02 -0.82254010D-02 -0.92215406D-02  0.19379867D-03
  0.25468533D-03 -0.62899397D-05  0.61146015D-02 -0.40996308D-02 -0.20149707D-02
  0.11517165D-02  0.81225920D-03 -0.17550523D-01  0.13966049D-03  0.66394963D-04
 -0.20605546D-03  0.11544464D-03  0.67948727D-04 -0.71647077D-03  0.30998257D-01
  0.55906633D-01  0.82434298D-01  0.54274508D-01  0.61953707D-02 -0.15131264D-03
  0.22117290D-02 -0.14191411D-01  0.22501229D-01  0.12164359D-02 -0.44487944D-02
  0.93883989D-02  0.19379867D-03  0.39366288D-03  0.29851023D-03 -0.54208606D-02
  0.23231156D-02  0.30977451D-02 -0.11517165D-02  0.81225920D-03 -0.16398364D-01
 -0.51449098D-04 -0.21698038D-03  0.26842948D-03 -0.11544464D-03  0.67948727D-04
 -0.75156631D-03
MO    3     MO 0.0        OCC NO =    2.0000000  ORB. ENERGY =    0.000000
  0.25704079D+00  0.47908176D+00  0.81235045D+00  0.12294060D+01  0.15335871D+01
  0.13160459D+01  0.50397567D+00 -0.31284517D-03 -0.33566233D-02 -0.12373146D-01
 -0.36178352D-01 -0.43596673D-01  0.52516813D-01  0.61854063D-01 -0.18558248D-01
 -0.59008579D-02  0.10566468D+00  0.10245919D+00  0.69118366D-01  0.37715624D+00
  0.36571468D+00  0.24670896D+00 -0.11470933D+01 -0.11122946D+01 -0.75034739D+00
  0.23878945D-01  0.80131841D-01 -0.25138070D+00  0.39896277D-02  0.82697184D-02
 -0.31372199D-01  0.13190976D-03  0.92180305D-04 -0.64560945D-03 -0.35585303D-01
  0.87225942D-02  0.26862709D-01 -0.55086465D-14 -0.40041151D-02 -0.34333467D-01
 -0.55043996D-02 -0.30418946D-02  0.85462942D-02  0.29762700D-14 -0.10973729D-02
 -0.56646689D-02  0.42397923D-03 -0.93787204D-03  0.51389282D-03  0.12391679D-14
 -0.83059923D-04  0.50899528D-04 -0.61469832D-03  0.18975161D-02  0.36314740D-03
  0.13635551D-02 -0.46378727D-02  0.14745222D-01  0.48053989D-03 -0.10546757D-02
 -0.15834664D-01 -0.14940112D-14 -0.32784272D-04  0.38135234D-04 -0.49707370D-03
  0.58488787D-04 -0.32719127D-03  0.30052158D-03  0.39864030D-04  0.21278557D-03
  0.11906995D-02 -0.28267318D-14  0.14424544D-01  0.26015259D-01  0.38359484D-01
  0.26136034D-01  0.48653499D-02  0.12100964D-03  0.13426393D-02  0.16881777D-01
 -0.36357820D-02  0.73844253D-03  0.80116414D-02 -0.23884343D-02  0.11764630D-03
  0.35883663D-03 -0.76234925D-03 -0.10220340D-02  0.42938808D-02 -0.32718468D-02
  0.69915435D-03  0.49308535D-03  0.78625325D-03 -0.18127643D-03  0.39529112D-03
 -0.21401468D-03  0.70081150D-04  0.41248559D-04 -0.28275262D-03  0.33612094D-01
  0.60620796D-01  0.89385328D-01  0.60350306D-01  0.91032618D-02  0.50107286D-04
  0.13426393D-02 -0.26589368D-01  0.86070585D-02  0.73844253D-03 -0.11483068D-01
  0.27087765D-02  0.11764630D-03 -0.18125586D-03 -0.67886533D-03 -0.41815651D-02
  0.60530532D-02 -0.18714881D-02 -0.69915435D-03  0.49308535D-03 -0.10084759D-01
 -0.23362082D-03  0.31767540D-03 -0.84054574D-04 -0.70081150D-04  0.41248559D-04
 -0.11933866D-03
MO    4     MO 0.0        OCC NO =    2.0000000  ORB. ENERGY =    0.000000
  0.41709758D+00  0.77740130D+00  0.13181931D+01  0.19949452D+01  0.24885368D+01
  0.21355348D+01  0.81779639D+00  0.56255484D-03  0.60358443D-02  0.22249258D-01
  0.65055527D-01  0.78395073D-01 -0.94435173D-01 -0.77367886D-02 -0.22552183D-02
  0.30165834D-02  0.16227322D+00  0.15735044D+00  0.10614768D+00  0.17093042D+00
  0.16574501D+00  0.11181060D+00  0.76439377D+00  0.74120483D+00  0.50001240D+00
  0.36671796D-01  0.36316433D-01  0.17073327D+00  0.61270215D-02  0.37479068D-02
  0.20799895D-01  0.20257878D-03  0.41776900D-04  0.42234676D-03  0.25271778D-01
 -0.72583302D-02 -0.18013447D-01  0.91664657D-15 -0.61492704D-02 -0.15560220D-01
  0.52287527D-02  0.45296547D-03 -0.56817182D-02  0.24949239D-15 -0.16852768D-02
 -0.25672762D-02 -0.18957145D-03  0.53099950D-03 -0.34142805D-03  0.17119510D-14
 -0.12755825D-03  0.23068100D-04 -0.94401536D-03  0.85997048D-03 -0.34905071D-03
  0.20940629D-02 -0.21019234D-02 -0.10097821D-01  0.73798321D-03 -0.47798799D-03
  0.11144973D-01  0.63331324D-15 -0.50348041D-04  0.17283213D-04  0.18667560D-03
  0.89823432D-04 -0.14828587D-03 -0.57845285D-03  0.61220692D-04  0.96436231D-04
  0.18426057D-04 -0.17794396D-14 -0.23619406D-01 -0.42598571D-01 -0.62811568D-01
 -0.38874323D-01 -0.52134692D-02 -0.22626986D-04  0.20619418D-02 -0.20082552D-01
 -0.68199886D-02  0.11340540D-02 -0.77527510D-02 -0.17352742D-02  0.18067385D-03
 -0.99646258D-04  0.45020192D-03  0.35432579D-02 -0.48939547D-02  0.13506967D-02
  0.10737177D-02  0.75724974D-03 -0.87325315D-02  0.14399887D-03 -0.21171714D-03
  0.67718274D-04  0.10762626D-03  0.63346966D-04 -0.50807758D-04 -0.14923444D-01
 -0.26915047D-01 -0.39686221D-01 -0.23368124D-01 -0.32928115D-02 -0.54760538D-04
  0.20619418D-02  0.15682989D-01 -0.12714290D-02  0.11340540D-02  0.61794708D-02
  0.57482516D-03  0.18067385D-03  0.18012738D-03  0.48803755D-03  0.21113315D-02
 -0.40966828D-02  0.19853512D-02 -0.10737177D-02  0.75724974D-03  0.45183693D-02
  0.12027595D-03 -0.24689325D-03  0.12661730D-03 -0.10762626D-03  0.63346966D-04
 -0.13142344D-03
MO    5     MO 0.0        OCC NO =    2.0000000  ORB. ENERGY =    0.000000
 -0.34778389D-01 -0.64821199D-01 -0.10991345D+00 -0.16634232D+00 -0.20749893D+00
 -0.17806496D+00 -0.68189418D-01 -0.16265324D-02 -0.17451625D-01 -0.64329975D-01
 -0.18809707D+00 -0.22666612D+00  0.27304336D+00  0.16407848D+00  0.10479773D+00
  0.98707935D-02  0.63992715D-01  0.62051408D-01  0.41859513D-01 -0.34830908D-01
 -0.33774264D-01 -0.22783919D-01  0.78893327D+00  0.76499989D+00  0.51606440D+00
  0.14461584D-01 -0.74002880D-02  0.16751362D+00  0.24162011D-02 -0.76372010D-03
  0.24927021D-01  0.79887280D-04 -0.85129805D-05  0.51132099D-03  0.11026044D-02
  0.18653651D-01 -0.19756256D-01  0.21819205D-14 -0.24249750D-02  0.31707438D-02
 -0.29595056D-02  0.86165425D-02 -0.56570370D-02 -0.16562337D-15 -0.66459173D-03
  0.52314012D-03 -0.40231408D-03  0.74824924D-03 -0.34593516D-03  0.21830802D-15
 -0.50302809D-04 -0.47006429D-05 -0.37227403D-03 -0.17523828D-03  0.26680291D-02
  0.82579718D-03  0.42831405D-03 -0.35846548D-02  0.29102491D-03  0.97400776D-04
 -0.44194325D-02 -0.35374202D-14 -0.19854834D-04 -0.35218424D-05  0.16580857D-03
  0.35422020D-04  0.30216573D-04  0.11496770D-03  0.24142482D-04 -0.19651046D-04
 -0.61239340D-03 -0.14260105D-15  0.40976534D-02  0.73902866D-02  0.10896973D-01
 -0.14629038D-01 -0.80522199D-02 -0.16313337D-03  0.81313018D-03  0.61124319D-02
  0.15219842D-01  0.44721608D-03 -0.52992249D-02  0.26820034D-02  0.71249032D-04
 -0.64945555D-03  0.42534669D-03 -0.29868600D-04 -0.24707484D-02  0.25006170D-02
  0.42342235D-03  0.29862270D-03  0.27342823D-02  0.19943785D-03 -0.34073694D-03
  0.14129909D-03  0.42442595D-04  0.24980981D-04  0.30099506D-04  0.23256562D-02
  0.41944167D-02  0.61846650D-02 -0.17788774D-01 -0.84435970D-02 -0.15658544D-03
  0.81313018D-03 -0.52159223D-02  0.14089199D-01  0.44721608D-03  0.56198160D-02
  0.22112689D-02  0.71249032D-04  0.63305572D-03  0.41763683D-03  0.26191853D-03
 -0.26332104D-02  0.23712919D-02 -0.42342235D-03  0.29862270D-03 -0.18755522D-02
  0.20427193D-03 -0.33356902D-03  0.12929709D-03 -0.42442595D-04  0.24980981D-04
  0.70341885D-05
END DATA
 TOTAL ENERGY =    -76.462906286439 THE VIRIAL(-V/T)=   2.00786226
