 74
GAUSSIAN              5 MOL ORBITALS    126 PRIMITIVES        3 NUCLEI   B3LYP   B3LYP
  O    1    (CENTRE  1)   0.00000000  0.00000000  0.00815606  CHARGE =  8.0
  H    2    (CENTRE  2)   0.00000000 -1.34807204 -1.09730160  CHARGE =  1.0
  H    3    (CENTRE  3)   0.00000000  1.34807204 -1.09730160  CHARGE =  1.0
CENTRE ASSIGNMENTS    1  1  1  1  1  1  1  1  1  1  1  1  1  1  1  1  1  1  1  1
CENTRE ASSIGNMENTS    1  1  1  1  1  1  1  1  1  1  1  1  1  1  1  1  1  1  1  1
CENTRE ASSIGNMENTS    1  1  1  1  1  1  1  1  1  1  1  1  1  1  1  1  1  1  1  1
CENTRE ASSIGNMENTS    1  1  1  1  1  1  1  1  1  1  1  1  2  2  2  2  2  2  2  2
CENTRE ASSIGNMENTS    2  2  2  2  2  2  2  2  2  2  2  2  2  2  2  2  2  2  2  3
CENTRE ASSIGNMENTS    3  3  3  3  3  3  3  3  3  3  3  3  3  3  3  3  3  3  3  3
CENTRE ASSIGNMENTS    3  3  3  3  3  3
TYPE ASSIGNMENTS      1  1  1  1  1  1  1  1  1  1  1  1  1  1  1  1  2  2  2  3
TYPE ASSIGNMENTS      3  3  4  4  4  2  3  4  2  3  4  2  3  4  5  6  7  8  9 10
TYPE ASSIGNMENTS      5  6  7  8  9 10  5  6  7  8  9 10 11 12 13 17 14 15 18 19
TYPE ASSIGNMENTS     16 20 11 12 13 17 14 15 18 19 16 20  1  1  1  1  1  1  2  3
TYPE ASSIGNMENTS      4  2  3  4  2  3  4  5  6  7  8  9 10  5  6  7  8  9 10  1
TYPE ASSIGNMENTS      1  1  1  1  1  2  3  4  2  3  4  2  3  4  5  6  7  8  9 10
TYPE ASSIGNMENTS      5  6  7  8  9 10
EXPONENTS  0.1533000D+05 0.2299000D+04 0.5224000D+03 0.1473000D+03 0.4755000D+02
EXPONENTS  0.1676000D+02 0.6207000D+01 0.5224000D+03 0.1473000D+03 0.4755000D+02
EXPONENTS  0.1676000D+02 0.6207000D+01 0.6882000D+00 0.1752000D+01 0.2384000D+00
EXPONENTS  0.7376000D-01 0.3446000D+02 0.7749000D+01 0.2280000D+01 0.3446000D+02
EXPONENTS  0.7749000D+01 0.2280000D+01 0.3446000D+02 0.7749000D+01 0.2280000D+01
EXPONENTS  0.7156000D+00 0.7156000D+00 0.7156000D+00 0.2140000D+00 0.2140000D+00
EXPONENTS  0.2140000D+00 0.5974000D-01 0.5974000D-01 0.5974000D-01 0.2314000D+01
EXPONENTS  0.2314000D+01 0.2314000D+01 0.2314000D+01 0.2314000D+01 0.2314000D+01
EXPONENTS  0.6450000D+00 0.6450000D+00 0.6450000D+00 0.6450000D+00 0.6450000D+00
EXPONENTS  0.6450000D+00 0.2140000D+00 0.2140000D+00 0.2140000D+00 0.2140000D+00
EXPONENTS  0.2140000D+00 0.2140000D+00 0.1428000D+01 0.1428000D+01 0.1428000D+01
EXPONENTS  0.1428000D+01 0.1428000D+01 0.1428000D+01 0.1428000D+01 0.1428000D+01
EXPONENTS  0.1428000D+01 0.1428000D+01 0.5000000D+00 0.5000000D+00 0.5000000D+00
EXPONENTS  0.5000000D+00 0.5000000D+00 0.5000000D+00 0.5000000D+00 0.5000000D+00
EXPONENTS  0.5000000D+00 0.5000000D+00 0.3387000D+02 0.5095000D+01 0.1159000D+01
EXPONENTS  0.3258000D+00 0.1027000D+00 0.2526000D-01 0.1407000D+01 0.1407000D+01
EXPONENTS  0.1407000D+01 0.3880000D+00 0.3880000D+00 0.3880000D+00 0.1020000D+00
EXPONENTS  0.1020000D+00 0.1020000D+00 0.1057000D+01 0.1057000D+01 0.1057000D+01
EXPONENTS  0.1057000D+01 0.1057000D+01 0.1057000D+01 0.2470000D+00 0.2470000D+00
EXPONENTS  0.2470000D+00 0.2470000D+00 0.2470000D+00 0.2470000D+00 0.3387000D+02
EXPONENTS  0.5095000D+01 0.1159000D+01 0.3258000D+00 0.1027000D+00 0.2526000D-01
EXPONENTS  0.1407000D+01 0.1407000D+01 0.1407000D+01 0.3880000D+00 0.3880000D+00
EXPONENTS  0.3880000D+00 0.1020000D+00 0.1020000D+00 0.1020000D+00 0.1057000D+01
EXPONENTS  0.1057000D+01 0.1057000D+01 0.1057000D+01 0.1057000D+01 0.1057000D+01
EXPONENTS  0.2470000D+00 0.2470000D+00 0.2470000D+00 0.2470000D+00 0.2470000D+00
EXPONENTS  0.2470000D+00
MO    1     MO 0.0        OCC NO =    2.0000000  ORB. ENERGY =    0.000000
 -0.79585802D-01 -0.14833485D+00 -0.25152258D+00 -0.38065268D+00 -0.47483421D+00
 -0.40747840D+00 -0.15604258D+00 -0.49622324D-05 -0.53241497D-04 -0.19625818D-03
 -0.57384742D-03 -0.69151404D-03  0.83300194D-03 -0.92843245D-02  0.50770667D-01
  0.78431558D-02 -0.62222819D+00 -0.60335204D+00 -0.40701772D+00 -0.19000564D+00
 -0.18424155D+00 -0.12428826D+00  0.14522675D+01  0.14082110D+01  0.94997082D+00
 -0.14029474D+00 -0.38184068D-01  0.31133279D+00 -0.22705206D-01 -0.32425354D-02
  0.34956301D-01 -0.70448885D-03 -0.27042287D-04  0.65341369D-03  0.42691236D-01
  0.13178932D-02 -0.44009129D-01  0.74423190D-14  0.27674035D-01  0.18136826D-01
  0.51002615D-02  0.63929931D-02 -0.11493255D-01 -0.76882230D-14  0.65939530D-02
  0.17701832D-02 -0.98588077D-03  0.13859415D-02 -0.40006075D-03 -0.20428204D-14
  0.38202324D-03 -0.23365200D-03  0.38082311D-02 -0.83777319D-03  0.23063404D-02
 -0.74587039D-02  0.15978631D-02 -0.18121982D-01 -0.39659894D-02  0.91545646D-03
  0.11202961D-01 -0.75940506D-14  0.69220773D-04 -0.10147398D-04  0.66970752D-03
 -0.63160822D-04  0.58116633D-04  0.24194115D-03 -0.14450150D-03 -0.27674438D-04
 -0.22510637D-02  0.72832300D-14 -0.23423766D-01 -0.42245726D-01 -0.62291299D-01
 -0.46185004D-01 -0.60257558D-02 -0.89238126D-04 -0.94526588D-02 -0.26205131D-01
  0.10306188D-02 -0.50619605D-02 -0.10409047D-01  0.19489835D-02 -0.75370316D-03
  0.91142991D-07  0.11441109D-02  0.32602409D-02 -0.70736691D-02  0.38134282D-02
 -0.45340966D-02 -0.34935412D-02 -0.53981635D-02 -0.79861935D-04 -0.35949084D-04
  0.11581102D-03 -0.47517635D-03 -0.31248377D-03  0.87035029D-03 -0.33328237D-01
 -0.60108848D-01 -0.88630461D-01 -0.65186942D-01 -0.83494657D-02 -0.66070996D-04
 -0.94526588D-02  0.32165424D-01 -0.74276275D-02 -0.50619605D-02  0.12629492D-01
 -0.12979024D-02 -0.75370316D-03 -0.32259428D-04  0.10834445D-02  0.53284188D-02
 -0.79101675D-02  0.25817486D-02  0.45340966D-02 -0.34935412D-02  0.11676601D-01
 -0.69574568D-04 -0.70789257D-05  0.76653493D-04  0.47517635D-03 -0.31248377D-03
 -0.77235647D-03
MO    2     MO 0.0        OCC NO =    2.0000000  ORB. ENERGY =    0.000000
  0.45195012D-01  0.84236071D-01  0.14283410D+00  0.21616422D+00  0.26964782D+00
  0.23139795D+00  0.88613121D-01  0.17474258D-04  0.18748732D-03  0.69111358D-03
  0.20207756D-02  0.24351328D-02 -0.29333755D-02  0.32887891D-02  0.21092182D-01
  0.33049052D-02  0.16033898D+01  0.15547488D+01  0.10488243D+01  0.30311368D+00
  0.29391831D+00  0.19827556D+00  0.60836031D+00  0.58990486D+00  0.39794633D+00
  0.36151875D+00  0.60914579D-01  0.13036027D+00  0.58507950D-01  0.51727772D-02
  0.14540361D-01  0.18153634D-02  0.43140232D-04  0.27126726D-03  0.17562318D-01
  0.82697414D-03 -0.18389292D-01 -0.24371199D-13 -0.71311887D-01 -0.28933459D-01
  0.21595344D-02  0.26607218D-02 -0.48202562D-02  0.17381161D-13 -0.16991640D-01
 -0.28239517D-02 -0.41457589D-03  0.58043973D-03 -0.16586384D-03  0.48181395D-14
 -0.98441728D-03  0.37274219D-03 -0.98132471D-02  0.13364894D-02  0.10655749D-02
  0.19219974D-01 -0.25490516D-02 -0.73477567D-02  0.10219767D-01 -0.14604166D-02
  0.41510319D-02 -0.31264439D-14 -0.17837167D-03  0.16188021D-04  0.26408102D-03
  0.16275608D-03 -0.92712758D-04  0.51555825D-04  0.37235894D-03  0.44148694D-04
 -0.84379887D-03 -0.16037503D-13 -0.19969201D-01 -0.36015276D-01 -0.53104503D-01
 -0.38916345D-01 -0.49122073D-02 -0.14297456D-04  0.24358101D-01 -0.17371997D-01
 -0.83907428D-02  0.13043922D-01 -0.67996013D-02 -0.26171276D-02  0.19421813D-02
  0.24120876D-04  0.40877242D-03  0.36855952D-02 -0.39924605D-02  0.30686530D-03
  0.11683695D-01  0.90023379D-02 -0.93012798D-02 -0.20813673D-04  0.13328804D-04
  0.74848691D-05  0.12244590D-02  0.80522436D-03  0.25616323D-03 -0.41687182D-02
 -0.75184550D-02 -0.11085958D-01 -0.86027836D-02 -0.12052211D-02 -0.51255697D-04
  0.24358101D-01  0.78636151D-02  0.51025947D-02  0.13043922D-01  0.32573533D-02
  0.25625899D-02  0.19421813D-02  0.27196797D-04  0.50555279D-03  0.38625613D-03
 -0.26580048D-02  0.22717487D-02 -0.11683695D-01  0.90023379D-02 -0.71463524D-03
 -0.37224986D-04 -0.32727408D-04  0.69952394D-04 -0.12244590D-02  0.80522436D-03
 -0.41249158D-03
MO    3     MO 0.0        OCC NO =    2.0000000  ORB. ENERGY =    0.000000
  0.39408339D+00  0.73450665D+00  0.12454592D+01  0.18848701D+01  0.23512269D+01
  0.20177025D+01  0.77267286D+00  0.14979628D-03  0.16072158D-02  0.59245000D-02
  0.17322890D-01  0.20874925D-01 -0.25146060D-01  0.30623730D-01  0.26237910D-02
  0.84972160D-03 -0.45544627D+00 -0.44162968D+00 -0.29792077D+00  0.83685729D+00
  0.81147007D+00  0.54741292D+00  0.16824973D+00  0.16314565D+00  0.11005709D+00
 -0.10269016D+00  0.16817720D+00  0.35798150D-01 -0.16619307D-01  0.14281362D-01
  0.33558264D-02 -0.51565780D-03  0.11910455D-03  0.60619905D-04  0.39848433D-02
  0.93477877D-03 -0.49196220D-02  0.28774383D-14  0.20256292D-01 -0.79881500D-01
  0.84731706D-03  0.54575292D-03 -0.13930700D-02 -0.31980955D-14  0.48265111D-02
 -0.77965618D-02 -0.12784164D-03  0.16556688D-03 -0.37725248D-04 -0.51939125D-15
  0.27962581D-03  0.10290925D-02  0.27874736D-02  0.36898727D-02  0.72464704D-03
 -0.54594743D-02 -0.70375986D-02 -0.10297789D-02 -0.29029464D-02 -0.40320194D-02
 -0.11441622D-02  0.26623144D-14  0.50666851D-04  0.44693013D-04  0.62439520D-05
 -0.46231208D-04 -0.25596782D-03 -0.21911304D-03 -0.10576934D-03  0.12188878D-03
  0.20038118D-03  0.31277215D-14 -0.26647355D-01 -0.48059603D-01 -0.70863856D-01
 -0.50946434D-01 -0.60965949D-02  0.43442563D-04 -0.69189700D-02 -0.19163268D-01
 -0.21151652D-01 -0.37051536D-02 -0.72949149D-02 -0.80407887D-02 -0.55168071D-03
  0.44223020D-04 -0.49941408D-04  0.63499264D-02 -0.37130874D-02 -0.26368389D-02
 -0.33187782D-02 -0.25571331D-02 -0.18733081D-01  0.21239082D-04  0.63029865D-04
 -0.84268948D-04 -0.34781017D-03 -0.22872568D-03 -0.16078597D-03  0.16975713D-01
  0.30616397D-01  0.45143859D-01  0.32745349D-01  0.41379097D-02 -0.58594313D-04
 -0.69189700D-02 -0.70881327D-02  0.16101690D-01 -0.37051536D-02 -0.24847692D-02
  0.62597348D-02 -0.55168071D-03  0.97458373D-04  0.21725657D-03 -0.27591180D-02
 -0.28829422D-04  0.27879474D-02  0.33187782D-02 -0.25571331D-02 -0.89195526D-02
 -0.24070409D-04 -0.64125322D-04  0.88195732D-04  0.34781017D-03 -0.22872568D-03
 -0.27081618D-03
MO    4     MO 0.0        OCC NO =    2.0000000  ORB. ENERGY =    0.000000
 -0.30901941D+00 -0.57596137D+00 -0.97662343D+00 -0.14780157D+01 -0.18437081D+01
 -0.15821759D+01 -0.60588930D+00 -0.39706743D-03 -0.42602730D-02 -0.15704168D-01
 -0.45918067D-01 -0.55333503D-01  0.66655069D-01  0.48342471D-02  0.16202268D-01
  0.10036517D-02 -0.18705255D+00 -0.18137805D+00 -0.12235656D+00  0.11693181D+01
  0.11338453D+01  0.76488531D+00  0.11860541D-01  0.11500735D-01  0.77583278D-02
 -0.42175024D-01  0.23498946D+00  0.25905708D-02 -0.68255774D-02  0.19954963D-01
  0.17487900D-02 -0.21178153D-03  0.16642157D-03  0.30966468D-04 -0.28031629D-02
  0.29675740D-02 -0.16441109D-03  0.39181407D-15  0.83192934D-02 -0.11161627D+00
 -0.93488540D-03  0.79919057D-03  0.13569483D-03 -0.83455433D-15  0.19822563D-02
 -0.10893926D-01  0.33279855D-04 -0.24694280D-04 -0.85855758D-05  0.14956089D-16
  0.11484279D-03  0.14379232D-02  0.11448201D-02  0.51557596D-02 -0.30487472D-04
 -0.22422153D-02 -0.98334467D-02  0.57806407D-04 -0.11922450D-02 -0.56338320D-02
  0.33656010D-04  0.35214270D-14  0.20808961D-04  0.62448342D-04 -0.14477324D-04
 -0.18987235D-04 -0.35765693D-03  0.14255203D-03 -0.43439648D-04  0.17031190D-03
 -0.99120054D-04  0.83895085D-16 -0.26063825D-01 -0.47007182D-01 -0.69312062D-01
 -0.54482576D-01 -0.76547044D-02  0.54390482D-04 -0.28416326D-02 -0.12915231D-01
 -0.21062062D-01 -0.15217128D-02 -0.59500289D-02 -0.87822797D-02 -0.22657620D-03
  0.40712465D-04 -0.15931998D-03  0.49508628D-02 -0.16226823D-02 -0.33281804D-02
 -0.13630278D-02 -0.10502189D-02 -0.15062748D-01  0.50746103D-04  0.56274815D-04
 -0.10702092D-03 -0.14284622D-03 -0.93938023D-04 -0.31991688D-03  0.34889512D-01
  0.62924671D-01  0.92782391D-01  0.62457695D-01  0.66456929D-02 -0.88182893D-04
 -0.28416326D-02 -0.23765143D-01  0.30991029D-01 -0.15217128D-02 -0.77148600D-02
  0.11199456D-01 -0.22657620D-03  0.15725512D-03  0.21402855D-03 -0.77769593D-02
  0.35252321D-02  0.42517272D-02  0.13630278D-02 -0.10502189D-02 -0.23575531D-01
 -0.12563628D-04 -0.12139570D-03  0.13395933D-03  0.14284622D-03 -0.93938023D-04
 -0.28314915D-03
MO    5     MO 0.0        OCC NO =    2.0000000  ORB. ENERGY =    0.000000
 -0.13799767D-01 -0.25720497D-01 -0.43612717D-01 -0.66003209D-01 -0.82333801D-01
 -0.70654650D-01 -0.27056977D-01 -0.16820888D-02 -0.18047709D-01 -0.66527252D-01
 -0.19452178D+00 -0.23440821D+00  0.28236953D+00  0.17210880D+00  0.90439112D-01
  0.70590087D-02  0.22088018D-01  0.21417948D-01  0.14448421D-01 -0.19779009D+00
 -0.19178986D+00 -0.12938031D+00  0.31919231D+00  0.30950918D+00  0.20879306D+00
  0.49802192D-02 -0.39748454D-01  0.67476283D-01  0.80599532D-03 -0.33753808D-02
  0.13239934D-01  0.25008129D-04 -0.28150199D-04  0.22757660D-03 -0.13808783D-01
  0.21500442D-01 -0.76916590D-02 -0.89754060D-14 -0.98238012D-03  0.18879885D-01
 -0.35319717D-02  0.49700254D-02 -0.14380537D-02  0.19843130D-14 -0.23407386D-03
  0.18427069D-02 -0.32414093D-04  0.11265937D-03 -0.80245275D-04  0.28171134D-15
 -0.13561161D-04 -0.24322463D-03 -0.13518558D-03 -0.87209643D-03  0.23031956D-02
  0.26477101D-03  0.16633269D-02  0.21330151D-02  0.14078573D-03  0.95296235D-03
 -0.90426019D-02  0.29079815D-14 -0.24572170D-05 -0.10563133D-04 -0.29781539D-03
  0.22420993D-05  0.60497649D-04 -0.23772970D-03  0.51295518D-05 -0.28808249D-04
  0.11311759D-02 -0.87076403D-15  0.19546439D-01  0.35252808D-01  0.51980244D-01
  0.12042351D-01 -0.36995329D-02 -0.11963274D-03  0.33555294D-03  0.18328761D-01
  0.23621775D-01  0.17969079D-03 -0.44372725D-03  0.47126544D-02  0.26755151D-04
 -0.49175421D-03  0.17791044D-03 -0.28391109D-02  0.24427766D-03  0.25948332D-02
  0.16095254D-03  0.12401464D-03  0.92924036D-02  0.12882700D-03 -0.20403541D-03
  0.75208413D-04  0.16867934D-04  0.11092630D-04 -0.10157846D-03  0.92361855D-02
  0.16657841D-01  0.24561977D-01 -0.77380890D-02 -0.61184443D-02 -0.95516463D-04
  0.33555294D-03 -0.12124278D-01  0.14816997D-01  0.17969079D-03  0.27551424D-02
  0.13327449D-02  0.26755151D-04  0.45826800D-03  0.11475856D-03 -0.68620050D-03
 -0.62649176D-03  0.13126923D-02 -0.16095254D-03  0.12401464D-03 -0.27567409D-02
  0.13953584D-03 -0.17398245D-03  0.34446618D-04 -0.16867934D-04  0.11092630D-04
  0.20358704D-03
END DATA
 TOTAL ENERGY =    -76.462332282895 THE VIRIAL(-V/T)=   2.00370635
