 74
GAUSSIAN              5 MOL ORBITALS    126 PRIMITIVES        3 NUCLEI   B3LYP
  O    1    (CENTRE  1)   0.00000000  0.00000000  0.00815606  CHARGE =  8.0
  H    2    (CENTRE  2)   0.00000000 -1.53704465 -1.09730160  CHARGE =  1.0
  H    3    (CENTRE  3)   0.00000000  1.34807204 -1.09730160  CHARGE =  1.0
CENTRE ASSIGNMENTS    1  1  1  1  1  1  1  1  1  1  1  1  1  1  1  1  1  1  1  1
CENTRE ASSIGNMENTS    1  1  1  1  1  1  1  1  1  1  1  1  1  1  1  1  1  1  1  1
CENTRE ASSIGNMENTS    1  1  1  1  1  1  1  1  1  1  1  1  1  1  1  1  1  1  1  1
CENTRE ASSIGNMENTS    1  1  1  1  1  1  1  1  1  1  1  1  2  2  2  2  2  2  2  2
CENTRE ASSIGNMENTS    2  2  2  2  2  2  2  2  2  2  2  2  2  2  2  2  2  2  2  3
CENTRE ASSIGNMENTS    3  3  3  3  3  3  3  3  3  3  3  3  3  3  3  3  3  3  3  3
CENTRE ASSIGNMENTS    3  3  3  3  3  3
TYPE ASSIGNMENTS      1  1  1  1  1  1  1  1  1  1  1  1  1  1  1  1  2  2  2  3
TYPE ASSIGNMENTS      3  3  4  4  4  2  3  4  2  3  4  2  3  4  5  6  7  8  9 10
TYPE ASSIGNMENTS      5  6  7  8  9 10  5  6  7  8  9 10 11 12 13 17 14 15 18 19
TYPE ASSIGNMENTS     16 20 11 12 13 17 14 15 18 19 16 20  1  1  1  1  1  1  2  3
TYPE ASSIGNMENTS      4  2  3  4  2  3  4  5  6  7  8  9 10  5  6  7  8  9 10  1
TYPE ASSIGNMENTS      1  1  1  1  1  2  3  4  2  3  4  2  3  4  5  6  7  8  9 10
TYPE ASSIGNMENTS      5  6  7  8  9 10
EXPONENTS  0.1533000D+05 0.2299000D+04 0.5224000D+03 0.1473000D+03 0.4755000D+02
EXPONENTS  0.1676000D+02 0.6207000D+01 0.5224000D+03 0.1473000D+03 0.4755000D+02
EXPONENTS  0.1676000D+02 0.6207000D+01 0.6882000D+00 0.1752000D+01 0.2384000D+00
EXPONENTS  0.7376000D-01 0.3446000D+02 0.7749000D+01 0.2280000D+01 0.3446000D+02
EXPONENTS  0.7749000D+01 0.2280000D+01 0.3446000D+02 0.7749000D+01 0.2280000D+01
EXPONENTS  0.7156000D+00 0.7156000D+00 0.7156000D+00 0.2140000D+00 0.2140000D+00
EXPONENTS  0.2140000D+00 0.5974000D-01 0.5974000D-01 0.5974000D-01 0.2314000D+01
EXPONENTS  0.2314000D+01 0.2314000D+01 0.2314000D+01 0.2314000D+01 0.2314000D+01
EXPONENTS  0.6450000D+00 0.6450000D+00 0.6450000D+00 0.6450000D+00 0.6450000D+00
EXPONENTS  0.6450000D+00 0.2140000D+00 0.2140000D+00 0.2140000D+00 0.2140000D+00
EXPONENTS  0.2140000D+00 0.2140000D+00 0.1428000D+01 0.1428000D+01 0.1428000D+01
EXPONENTS  0.1428000D+01 0.1428000D+01 0.1428000D+01 0.1428000D+01 0.1428000D+01
EXPONENTS  0.1428000D+01 0.1428000D+01 0.5000000D+00 0.5000000D+00 0.5000000D+00
EXPONENTS  0.5000000D+00 0.5000000D+00 0.5000000D+00 0.5000000D+00 0.5000000D+00
EXPONENTS  0.5000000D+00 0.5000000D+00 0.3387000D+02 0.5095000D+01 0.1159000D+01
EXPONENTS  0.3258000D+00 0.1027000D+00 0.2526000D-01 0.1407000D+01 0.1407000D+01
EXPONENTS  0.1407000D+01 0.3880000D+00 0.3880000D+00 0.3880000D+00 0.1020000D+00
EXPONENTS  0.1020000D+00 0.1020000D+00 0.1057000D+01 0.1057000D+01 0.1057000D+01
EXPONENTS  0.1057000D+01 0.1057000D+01 0.1057000D+01 0.2470000D+00 0.2470000D+00
EXPONENTS  0.2470000D+00 0.2470000D+00 0.2470000D+00 0.2470000D+00 0.3387000D+02
EXPONENTS  0.5095000D+01 0.1159000D+01 0.3258000D+00 0.1027000D+00 0.2526000D-01
EXPONENTS  0.1407000D+01 0.1407000D+01 0.1407000D+01 0.3880000D+00 0.3880000D+00
EXPONENTS  0.3880000D+00 0.1020000D+00 0.1020000D+00 0.1020000D+00 0.1057000D+01
EXPONENTS  0.1057000D+01 0.1057000D+01 0.1057000D+01 0.1057000D+01 0.1057000D+01
EXPONENTS  0.2470000D+00 0.2470000D+00 0.2470000D+00 0.2470000D+00 0.2470000D+00
EXPONENTS  0.2470000D+00
MO    1     MO 0.0        OCC NO =    2.0000000  ORB. ENERGY =    0.000000
 -0.57177122D-01 -0.10656875D+00 -0.18070230D+00 -0.27347372D+00 -0.34113690D+00
 -0.29274622D+00 -0.11210625D+00  0.15176886D-03  0.16283802D-02  0.60025162D-02
  0.17551005D-01  0.21149815D-01 -0.25477193D-01 -0.20917315D-01 -0.10477476D-01
 -0.19438048D-03  0.56109109D+00  0.54406962D+00  0.36702615D+00  0.13705109D+01
  0.13289345D+01  0.89649138D+00  0.84857476D-01  0.82283207D-01  0.55507765D-01
  0.12664160D+00  0.28433080D+00  0.24092746D-01  0.20807506D-01  0.27071764D-01
  0.51156405D-02  0.66642501D-03  0.27054074D-03  0.10360729D-03  0.46154925D-02
 -0.33578131D-02 -0.12576794D-02  0.14034266D-02 -0.23100030D-01 -0.12700416D+00
  0.20145173D-02 -0.13092463D-02 -0.70527104D-03 -0.34521381D-03 -0.58695852D-02
 -0.17202066D-01  0.27289198D-03 -0.12342035D-03 -0.14947163D-03 -0.99305679D-04
 -0.38728908D-03  0.86991217D-03 -0.33459282D-02  0.65565855D-02 -0.23076691D-03
  0.69928820D-02 -0.14409159D-01 -0.26836706D-02  0.30449027D-02 -0.52605972D-02
  0.33759713D-02 -0.55836331D-03 -0.11586854D-03  0.93489128D-04 -0.96901003D-04
  0.17928121D-03 -0.83555399D-03 -0.36890076D-03  0.16832440D-03  0.55508660D-03
  0.65960377D-03  0.35562475D-03 -0.38391118D-01 -0.69239962D-01 -0.10209428D+00
 -0.67426122D-01 -0.86725488D-02  0.11393463D-03  0.70948598D-02 -0.21566167D-01
 -0.23342072D-01  0.38772586D-02 -0.78865224D-02 -0.94837936D-02  0.61372133D-03
  0.16819584D-03 -0.12592824D-03  0.63592667D-02 -0.41525359D-02 -0.22067307D-02
  0.36643054D-02  0.25303920D-02 -0.18410599D-01  0.17356174D-03 -0.65328687D-05
 -0.16702887D-03  0.36986333D-03  0.20153168D-03 -0.81950986D-03  0.31669193D-01
  0.57116693D-01  0.84218531D-01  0.62053018D-01  0.69869165D-02 -0.10838004D-03
  0.85500624D-02 -0.16742017D-01  0.28515256D-01  0.46377929D-02 -0.57735246D-02
  0.11139651D-01  0.69648021D-03  0.38371411D-03  0.22311048D-03 -0.67073941D-02
  0.21455068D-02  0.45618873D-02 -0.41046671D-02  0.32664323D-02 -0.20233400D-01
  0.63436660D-04 -0.30006883D-03  0.23663217D-03 -0.43912875D-03  0.30734497D-03
 -0.23924376D-03
MO    2     MO 0.0        OCC NO =    2.0000000  ORB. ENERGY =    0.000000
 -0.79182595D-01 -0.14758334D+00 -0.25024829D+00 -0.37872418D+00 -0.47242856D+00
 -0.40541399D+00 -0.15525202D+00  0.92284474D-04  0.99015184D-03  0.36498861D-02
  0.10672053D-01  0.12860343D-01 -0.15491646D-01 -0.19357795D-01  0.56937290D-02
  0.12330956D-02  0.16189820D+01  0.15698680D+01  0.10590237D+01 -0.51422017D+00
 -0.49862059D+00 -0.33636651D+00  0.25867072D+00  0.25082359D+00  0.16920411D+00
  0.36541387D+00 -0.10559178D+00  0.54015270D-01  0.60038341D-01 -0.95211509D-02
  0.52179675D-02  0.19229144D-02 -0.94218539D-04  0.10187139D-03  0.89006026D-02
 -0.14963429D-02 -0.74042597D-02  0.40494716D-02 -0.66653231D-01  0.49944049D-01
  0.79419144D-03  0.12534935D-02 -0.20476849D-02 -0.99608596D-03 -0.16936204D-01
  0.57696970D-02 -0.26673380D-03  0.32090231D-03 -0.54168517D-04 -0.28653834D-03
 -0.11174907D-02 -0.54135754D-03 -0.96543998D-02 -0.22623416D-02  0.66064326D-04
  0.20177384D-01  0.52159877D-02 -0.32679421D-02  0.87858155D-02  0.15710371D-02
  0.30697492D-02 -0.16111113D-02 -0.33432910D-03 -0.99002723D-04  0.21312061D-03
  0.51730113D-03  0.21898831D-03  0.15908382D-03  0.48568615D-03  0.78019856D-04
 -0.79844566D-03  0.10261259D-02  0.76569733D-02  0.13809667D-01  0.20362345D-01
  0.14218629D-01  0.17441502D-02 -0.60476887D-04  0.20471632D-01  0.20071975D-02
  0.74972891D-02  0.11187510D-01  0.65922599D-03  0.33881716D-02  0.17708422D-02
 -0.88892406D-04  0.22820831D-03 -0.17153422D-02  0.35128912D-03  0.13640531D-02
  0.10573051D-01  0.73012373D-02  0.56293396D-02 -0.21240686D-04 -0.47172171D-04
  0.68412858D-04  0.10672101D-02  0.58150302D-03  0.34095354D-03 -0.19586628D-01
 -0.35325291D-01 -0.52087120D-01 -0.35919678D-01 -0.38211897D-02  0.33707724D-04
  0.24670499D-01  0.14074500D-01 -0.13144578D-01  0.13381969D-01  0.45719745D-02
 -0.42853652D-02  0.20096362D-02 -0.17663153D-03  0.15860536D-03  0.33539777D-02
 -0.22087264D-02 -0.11452513D-02 -0.11843678D-01  0.94250207D-02  0.96891479D-02
 -0.47421037D-04  0.90498090D-04 -0.43077052D-04 -0.12670698D-02  0.88681854D-03
 -0.10389558D-03
MO    3     MO 0.0        OCC NO =    2.0000000  ORB. ENERGY =    0.000000
  0.16017028D+00  0.29853107D+00  0.50620139D+00  0.76608197D+00  0.95562688D+00
  0.82007003D+00  0.31404326D+00 -0.25893771D-03 -0.27782317D-02 -0.10241085D-01
 -0.29944333D-01 -0.36084377D-01  0.43467456D-01  0.45402965D-01 -0.31774188D-01
 -0.69816771D-02  0.47320811D+00  0.45885269D+00  0.30953931D+00  0.88198406D-01
  0.85522785D-01  0.57693166D-01 -0.13503391D+01 -0.13093747D+01 -0.88329643D+00
  0.10680588D+00  0.13092186D-01 -0.29231640D+00  0.17548453D-01 -0.12210701D-02
 -0.34112449D-01  0.56204372D-03 -0.26227883D-04 -0.66669567D-03 -0.41854760D-01
  0.53037874D-02  0.36550973D-01  0.11836097D-02 -0.19481902D-01 -0.16089373D-01
 -0.57318978D-02 -0.47833183D-02  0.10515216D-01 -0.29114341D-03 -0.49502395D-02
  0.19735081D-02  0.75560409D-03 -0.12472329D-02  0.49162884D-03 -0.83751558D-04
 -0.32662849D-03  0.10224802D-02 -0.28218598D-02 -0.28843585D-03 -0.80284625D-03
  0.58975959D-02  0.23051553D-03  0.17401153D-01  0.25679835D-02  0.63479203D-03
 -0.14992614D-01 -0.47090758D-03 -0.97720195D-04  0.26505197D-03 -0.66053692D-03
  0.15120062D-03  0.27608516D-03  0.42794847D-04  0.14195996D-03 -0.10712411D-02
  0.19388159D-02  0.29992370D-03  0.24261824D-01  0.43757198D-01  0.64519963D-01
  0.43975501D-01  0.72453473D-02  0.10698217D-03  0.59836010D-02  0.22136323D-01
  0.20950508D-03  0.32699686D-02  0.10037149D-01 -0.59679293D-03  0.51759494D-03
  0.23715595D-03 -0.84390391D-03 -0.26107551D-02  0.55195791D-02 -0.29088240D-02
  0.30903699D-02  0.21340600D-02  0.42096600D-02 -0.20533634D-03  0.26318101D-03
 -0.57844673D-04  0.31193211D-03  0.16996603D-03 -0.20410230D-03  0.32440597D-01
  0.58507953D-01  0.86269942D-01  0.60426872D-01  0.73864897D-02  0.60479074D-04
  0.72108771D-02 -0.32372749D-01  0.84375178D-02  0.39113813D-02 -0.12125008D-01
  0.10884662D-02  0.58739140D-03 -0.17512905D-04 -0.10341015D-02 -0.45601681D-02
  0.70868917D-02 -0.25267236D-02 -0.34617583D-02  0.27548152D-02 -0.11357112D-01
  0.56230347D-04  0.13864611D-03 -0.19487646D-03 -0.37034858D-03  0.25920592D-03
  0.74245398D-03
MO    4     MO 0.0        OCC NO =    2.0000000  ORB. ENERGY =    0.000000
  0.45473658D+00  0.84755421D+00  0.14371473D+01  0.21749696D+01  0.27131031D+01
  0.23282461D+01  0.89159456D+00  0.91191284D-04  0.97842264D-03  0.36066501D-02
  0.10545633D-01  0.12708001D-01 -0.15308134D-01  0.44460958D-01  0.19519386D-01
  0.36882331D-02  0.20793948D+00  0.20163135D+00  0.13601932D+00  0.72457562D-01
  0.70259462D-01  0.47396618D-01  0.62531275D+00  0.60634303D+00  0.40903542D+00
  0.46933177D-01  0.19240288D-01  0.13640493D+00  0.77112292D-02  0.34342491D-02
  0.16220815D-01  0.24697607D-03  0.57198377D-04  0.31167293D-03  0.15729229D-01
  0.10378001D-02 -0.16767029D-01  0.52010770D-03 -0.85608352D-02 -0.59138708D-02
  0.26733450D-02  0.20906320D-02 -0.47639770D-02 -0.12793570D-03 -0.21752591D-02
 -0.32231200D-02 -0.28873430D-03  0.51256549D-03 -0.22383119D-03 -0.36802529D-04
 -0.14352873D-03 -0.51186032D-03 -0.12399958D-02  0.55263188D-03  0.98200353D-03
  0.25915511D-02 -0.22163128D-02 -0.65328402D-02  0.11284362D-02  0.55841714D-03
  0.35868296D-02 -0.20692857D-03 -0.42940698D-04 -0.83416237D-04  0.12632640D-03
  0.66441336D-04 -0.16284383D-03 -0.36211030D-03  0.62380758D-04  0.41309254D-03
 -0.16868886D-04  0.13179397D-03 -0.13470197D-01 -0.24294055D-01 -0.35821570D-01
 -0.24892127D-01 -0.40840845D-02 -0.31856138D-04  0.26293439D-02 -0.10988041D-01
 -0.98865807D-03  0.14369060D-02 -0.52630492D-02 -0.27802066D-03  0.22744416D-03
 -0.95539111D-04  0.37672724D-03  0.22241231D-02 -0.34612133D-02  0.12370902D-02
  0.13579859D-02  0.93775932D-03 -0.47680701D-02  0.10584539D-03 -0.11778506D-03
  0.11939664D-04  0.13707077D-03  0.74687324D-04  0.29946753D-04 -0.11281513D-01
 -0.20346673D-01 -0.30001158D-01 -0.24314677D-01 -0.37561712D-02 -0.59206076D-04
  0.31686398D-02  0.13942866D-01 -0.15255486D-02  0.17187588D-02  0.65662668D-02
 -0.54225978D-03  0.25811448D-03  0.19910958D-03  0.39098612D-03  0.30112968D-02
 -0.43627130D-02  0.13514162D-02 -0.15211832D-02  0.12105347D-02  0.76558033D-02
  0.21839700D-04 -0.13127173D-03  0.10943203D-03 -0.16274043D-03  0.11390156D-03
 -0.23239865D-03
MO    5     MO 0.0        OCC NO =    2.0000000  ORB. ENERGY =    0.000000
 -0.13158007D+00 -0.24524362D+00 -0.41584502D+00 -0.62933722D+00 -0.78504858D+00
 -0.67368847D+00 -0.25798690D+00 -0.17108231D-02 -0.18356010D-01 -0.67663708D-01
 -0.19784471D+00 -0.23841250D+00  0.28719312D+00  0.16124542D+00  0.99751198D-01
  0.84834981D-02  0.76567763D-01  0.74244974D-01  0.50085221D-01  0.87880319D-01
  0.85214349D-01  0.57485096D-01  0.55595428D+00  0.53908864D+00  0.36366601D+00
  0.17281799D-01  0.15928069D-01  0.11747167D+00  0.28394395D-02  0.11565072D-02
  0.18953197D-01  0.90941870D-04  0.16424242D-04  0.36066890D-03 -0.60644737D-02
  0.20648331D-01 -0.14583858D-01  0.19151478D-03 -0.31522826D-02 -0.98509370D-02
 -0.33907593D-02  0.69742551D-02 -0.35834958D-02 -0.47108660D-04 -0.80097691D-03
  0.61676534D-03 -0.24551793D-03  0.43534135D-03 -0.18982342D-03 -0.13551478D-04
 -0.52850347D-04  0.14285642D-03 -0.45659296D-03  0.70850211D-04  0.25890838D-02
  0.95426455D-03 -0.10398924D-03 -0.10370938D-02  0.41551433D-03 -0.10856139D-03
 -0.67301576D-02 -0.76195525D-04 -0.15811683D-04 -0.32846388D-05 -0.57007882D-04
  0.24465121D-04  0.22855149D-03  0.58500286D-04  0.22969929D-04 -0.21869757D-03
  0.11252336D-03  0.48529360D-04  0.60666006D-02  0.10941364D-01  0.16133035D-01
 -0.10722745D-01 -0.70130378D-02 -0.13083047D-03  0.96818067D-03  0.86293136D-02
  0.13915695D-01  0.52909951D-03 -0.38852140D-02  0.22999472D-02  0.83749805D-04
 -0.55918765D-03  0.28991021D-03 -0.23602897D-03 -0.17104664D-02  0.19464954D-02
  0.50003943D-03  0.34530304D-03  0.28164354D-02  0.15883612D-03 -0.26134750D-03
  0.10251138D-03  0.50472389D-04  0.27501470D-04 -0.23798920D-04  0.12222058D-01
  0.22042984D-01  0.32502368D-01 -0.26458538D-02 -0.58529811D-02 -0.13150487D-03
  0.11667609D-02 -0.12704971D-01  0.20970952D-01  0.63288374D-03  0.27399863D-02
  0.37255443D-02  0.95043270D-04  0.49040495D-03  0.34060300D-03 -0.17609172D-02
 -0.97078454D-03  0.27317018D-02 -0.56013219D-03  0.44574476D-03 -0.72020177D-02
  0.13099600D-03 -0.21498238D-03  0.83986377D-04 -0.59924506D-04  0.41940992D-04
 -0.74153740D-05
END DATA
 TOTAL ENERGY =    -76.463168760659 THE VIRIAL(-V/T)=   2.00578648
