 75
GAUSSIAN              5 MOL ORBITALS    126 PRIMITIVES        3 NUCLEI   B3LYP
  O    1    (CENTRE  1)   0.00000000  0.00000000  0.00815606  CHARGE =  8.0
  H    2    (CENTRE  2)   0.00000000 -1.44255835 -1.00281530  CHARGE =  1.0
  H    3    (CENTRE  3)   0.00000000  1.53704465 -1.09730160  CHARGE =  1.0
CENTRE ASSIGNMENTS    1  1  1  1  1  1  1  1  1  1  1  1  1  1  1  1  1  1  1  1
CENTRE ASSIGNMENTS    1  1  1  1  1  1  1  1  1  1  1  1  1  1  1  1  1  1  1  1
CENTRE ASSIGNMENTS    1  1  1  1  1  1  1  1  1  1  1  1  1  1  1  1  1  1  1  1
CENTRE ASSIGNMENTS    1  1  1  1  1  1  1  1  1  1  1  1  2  2  2  2  2  2  2  2
CENTRE ASSIGNMENTS    2  2  2  2  2  2  2  2  2  2  2  2  2  2  2  2  2  2  2  3
CENTRE ASSIGNMENTS    3  3  3  3  3  3  3  3  3  3  3  3  3  3  3  3  3  3  3  3
CENTRE ASSIGNMENTS    3  3  3  3  3  3
TYPE ASSIGNMENTS      1  1  1  1  1  1  1  1  1  1  1  1  1  1  1  1  2  2  2  3
TYPE ASSIGNMENTS      3  3  4  4  4  2  3  4  2  3  4  2  3  4  5  6  7  8  9 10
TYPE ASSIGNMENTS      5  6  7  8  9 10  5  6  7  8  9 10 11 12 13 17 14 15 18 19
TYPE ASSIGNMENTS     16 20 11 12 13 17 14 15 18 19 16 20  1  1  1  1  1  1  2  3
TYPE ASSIGNMENTS      4  2  3  4  2  3  4  5  6  7  8  9 10  5  6  7  8  9 10  1
TYPE ASSIGNMENTS      1  1  1  1  1  2  3  4  2  3  4  2  3  4  5  6  7  8  9 10
TYPE ASSIGNMENTS      5  6  7  8  9 10
EXPONENTS  0.1533000D+05 0.2299000D+04 0.5224000D+03 0.1473000D+03 0.4755000D+02
EXPONENTS  0.1676000D+02 0.6207000D+01 0.5224000D+03 0.1473000D+03 0.4755000D+02
EXPONENTS  0.1676000D+02 0.6207000D+01 0.6882000D+00 0.1752000D+01 0.2384000D+00
EXPONENTS  0.7376000D-01 0.3446000D+02 0.7749000D+01 0.2280000D+01 0.3446000D+02
EXPONENTS  0.7749000D+01 0.2280000D+01 0.3446000D+02 0.7749000D+01 0.2280000D+01
EXPONENTS  0.7156000D+00 0.7156000D+00 0.7156000D+00 0.2140000D+00 0.2140000D+00
EXPONENTS  0.2140000D+00 0.5974000D-01 0.5974000D-01 0.5974000D-01 0.2314000D+01
EXPONENTS  0.2314000D+01 0.2314000D+01 0.2314000D+01 0.2314000D+01 0.2314000D+01
EXPONENTS  0.6450000D+00 0.6450000D+00 0.6450000D+00 0.6450000D+00 0.6450000D+00
EXPONENTS  0.6450000D+00 0.2140000D+00 0.2140000D+00 0.2140000D+00 0.2140000D+00
EXPONENTS  0.2140000D+00 0.2140000D+00 0.1428000D+01 0.1428000D+01 0.1428000D+01
EXPONENTS  0.1428000D+01 0.1428000D+01 0.1428000D+01 0.1428000D+01 0.1428000D+01
EXPONENTS  0.1428000D+01 0.1428000D+01 0.5000000D+00 0.5000000D+00 0.5000000D+00
EXPONENTS  0.5000000D+00 0.5000000D+00 0.5000000D+00 0.5000000D+00 0.5000000D+00
EXPONENTS  0.5000000D+00 0.5000000D+00 0.3387000D+02 0.5095000D+01 0.1159000D+01
EXPONENTS  0.3258000D+00 0.1027000D+00 0.2526000D-01 0.1407000D+01 0.1407000D+01
EXPONENTS  0.1407000D+01 0.3880000D+00 0.3880000D+00 0.3880000D+00 0.1020000D+00
EXPONENTS  0.1020000D+00 0.1020000D+00 0.1057000D+01 0.1057000D+01 0.1057000D+01
EXPONENTS  0.1057000D+01 0.1057000D+01 0.1057000D+01 0.2470000D+00 0.2470000D+00
EXPONENTS  0.2470000D+00 0.2470000D+00 0.2470000D+00 0.2470000D+00 0.3387000D+02
EXPONENTS  0.5095000D+01 0.1159000D+01 0.3258000D+00 0.1027000D+00 0.2526000D-01
EXPONENTS  0.1407000D+01 0.1407000D+01 0.1407000D+01 0.3880000D+00 0.3880000D+00
EXPONENTS  0.3880000D+00 0.1020000D+00 0.1020000D+00 0.1020000D+00 0.1057000D+01
EXPONENTS  0.1057000D+01 0.1057000D+01 0.1057000D+01 0.1057000D+01 0.1057000D+01
EXPONENTS  0.2470000D+00 0.2470000D+00 0.2470000D+00 0.2470000D+00 0.2470000D+00
EXPONENTS  0.2470000D+00
MO    1     MO 0.0        OCC NO =    2.0000000  ORB. ENERGY =    0.000000
  0.83709177D-01  0.15602014D+00  0.26455408D+00  0.40037446D+00  0.49943559D+00
  0.42859004D+00  0.16412721D+00 -0.38641642D-03 -0.41459946D-02 -0.15282917D-01
 -0.44686352D-01 -0.53849227D-01  0.64867100D-01  0.48986882D-01 -0.19561714D-01
 -0.60149981D-02 -0.69427870D+00 -0.67321680D+00 -0.45414807D+00  0.36955824D+00
  0.35834718D+00  0.24173889D+00 -0.12489028D+01 -0.12110156D+01 -0.81694400D+00
 -0.15676099D+00  0.80727318D-01 -0.27366131D+00 -0.25804996D-01  0.91972906D-02
 -0.33402422D-01 -0.83309927D-03  0.86811673D-04 -0.68749980D-03 -0.38858086D-01
  0.80687964D-02  0.30789290D-01  0.25253063D-02  0.27570657D-01 -0.29556712D-01
 -0.59939619D-02 -0.33610103D-02  0.93549722D-02 -0.12221302D-03  0.70853900D-02
 -0.68279152D-02  0.55541326D-03 -0.11001915D-02  0.54477829D-03 -0.93992099D-04
  0.48108744D-03 -0.37286620D-03  0.41152698D-02  0.22350917D-02  0.35519241D-03
 -0.92695503D-02 -0.50578253D-02  0.16089089D-01 -0.30762591D-02 -0.16474499D-02
 -0.17154666D-01 -0.26424716D-03  0.14441135D-03 -0.13022463D-03 -0.51841629D-03
 -0.21703285D-03 -0.48226490D-03  0.21170609D-03 -0.21620119D-03  0.87293879D-03
  0.13435428D-02  0.37216952D-03  0.17455395D-01  0.31481525D-01  0.46419489D-01
  0.30988802D-01  0.42415723D-02  0.95693570D-04 -0.10338135D-01  0.22621375D-01
 -0.40433478D-02 -0.56442486D-02  0.89124020D-02 -0.35585238D-02 -0.85792015D-03
  0.17067052D-03 -0.10190557D-02 -0.17052722D-02  0.58018232D-02 -0.40965511D-02
 -0.52549881D-02 -0.36150717D-02  0.20324819D-02 -0.32775245D-04  0.29671703D-03
 -0.26394178D-03 -0.56393149D-03 -0.34167415D-03 -0.74588953D-03  0.35844306D-01
  0.64646682D-01  0.95321495D-01  0.63557775D-01  0.95190014D-02  0.56453229D-04
 -0.87773520D-02 -0.28352779D-01  0.87888004D-02 -0.48313489D-02 -0.11983495D-01
  0.27915628D-02 -0.76956623D-03 -0.18853697D-03 -0.74533354D-03 -0.45801628D-02
  0.65702521D-02 -0.19900893D-02  0.45227309D-02 -0.31948556D-02 -0.10776082D-01
 -0.24804994D-03  0.28751181D-03 -0.39461874D-04  0.46661014D-03 -0.26630585D-03
 -0.84814782D-04
MO    2     MO 0.0        OCC NO =    2.0000000  ORB. ENERGY =    0.000000
 -0.22265959D+00 -0.41500087D+00 -0.70369229D+00 -0.10649635D+01 -0.13284580D+01
 -0.11400146D+01 -0.43656502D+00 -0.84693722D-04 -0.90870806D-03 -0.33496690D-02
 -0.97942357D-02 -0.11802530D-01  0.14217398D-01 -0.17915792D-01 -0.18994463D-01
 -0.38939541D-02  0.13915895D+01  0.13493737D+01  0.91027955D+00  0.14798940D+00
  0.14349993D+00  0.96804208D-01 -0.68418183D+00 -0.66342623D+00 -0.44754341D+00
  0.31420660D+00  0.33530736D-01 -0.14993158D+00  0.51722691D-01  0.42091137D-02
 -0.18588628D-01  0.16698369D-02  0.47152482D-04 -0.38002413D-03 -0.18072996D-01
  0.96488428D-03  0.17108112D-01 -0.50616414D-02 -0.55261723D-01 -0.12411278D-01
 -0.28454148D-02 -0.22248796D-02  0.50702944D-02  0.24495978D-03 -0.14201724D-01
 -0.33054181D-02  0.29673503D-03 -0.58813297D-03  0.29139794D-03  0.18839469D-03
 -0.96427594D-03 -0.28204756D-03 -0.82485122D-02  0.97731424D-03 -0.32863819D-03
  0.18579584D-01 -0.25741896D-02  0.76723421D-02  0.61659532D-02 -0.35775316D-03
 -0.66864275D-02  0.52964837D-03 -0.28945338D-03 -0.76000804D-04 -0.17640968D-03
  0.43501354D-03 -0.19589895D-03  0.24042396D-03  0.43334660D-03  0.42390136D-03
  0.28880506D-03 -0.74596443D-03  0.92064981D-02  0.16604299D-01  0.24483028D-01
  0.19474789D-01  0.32574161D-02  0.64053912D-04  0.20721421D-01  0.12012078D-01
 -0.23472095D-02  0.11313147D-01  0.57856902D-02 -0.13269363D-02  0.17195871D-02
  0.18155910D-03 -0.50702884D-03 -0.17728261D-02  0.40157935D-02 -0.22429673D-02
  0.10532926D-01  0.72459315D-02  0.32029068D-02 -0.41313392D-04  0.18068127D-03
 -0.13936788D-03  0.11303258D-02  0.68484049D-03 -0.32702923D-03  0.16681340D-01
  0.30085483D-01  0.44361027D-01  0.31128532D-01  0.51434450D-02  0.38344310D-04
  0.17593037D-01 -0.13161460D-01  0.24651699D-02  0.96837977D-02 -0.62690537D-02
  0.90359804D-03  0.15424934D-02 -0.14429482D-03 -0.41006062D-03 -0.24603436D-02
  0.37361138D-02 -0.12757702D-02 -0.90652139D-02  0.64036641D-02 -0.54914143D-02
 -0.13788143D-03  0.16876379D-03 -0.30882364D-04 -0.93525812D-03  0.53377474D-03
 -0.18079572D-04
MO    3     MO 0.0        OCC NO =    2.0000000  ORB. ENERGY =    0.000000
  0.43242632D+00  0.80597155D+00  0.13666380D+01  0.20682613D+01  0.25799930D+01
  0.22140178D+01  0.84785121D+00  0.34809164D-04  0.37347949D-03  0.13767157D-02
  0.40254360D-02  0.48508462D-02 -0.58433582D-02  0.47561680D-01 -0.26118626D-03
 -0.48661480D-04  0.87480224D+00  0.84826390D+00  0.57223382D+00 -0.10206539D+00
 -0.98969099D-01 -0.66763970D-01 -0.35108767D-01 -0.34043694D-01 -0.22965675D-01
  0.19752135D+00 -0.22435704D-01 -0.65365253D-02  0.32514707D-01 -0.24046303D-02
 -0.71747170D-03  0.10497184D-02 -0.35279332D-04 -0.19667640D-04 -0.31897424D-02
  0.27520209D-02  0.43772150D-03 -0.31819262D-02 -0.34739467D-01  0.11011709D-01
  0.81214941D-04 -0.38326723D-03  0.30205229D-03  0.15399035D-03 -0.89277044D-02
  0.19314641D-02  0.69759258D-04 -0.91340945D-04  0.21581687D-04  0.11843154D-03
 -0.60617785D-03  0.68238616D-05 -0.51853056D-02 -0.57164668D-03  0.43720017D-03
  0.11679781D-01  0.18166519D-02  0.13153024D-02  0.38761355D-02 -0.10171185D-03
 -0.26269029D-02  0.33295564D-03 -0.18196060D-03 -0.83115085D-05 -0.16770771D-03
  0.27346485D-03  0.37084744D-04 -0.25682497D-03  0.27241695D-03 -0.12150219D-04
  0.75994809D-03 -0.46893954D-03  0.33356901D-02  0.60160545D-02  0.88706689D-02
  0.46775044D-02  0.18081795D-03 -0.17971295D-04  0.13026215D-01  0.13084972D-02
  0.15077476D-02  0.71118433D-02 -0.28390459D-03  0.48955871D-04  0.10809931D-02
 -0.12643613D-03 -0.81894224D-04  0.61674484D-03 -0.76613909D-03  0.14939426D-03
  0.66213688D-02  0.45550480D-02 -0.14415311D-02  0.30695919D-04 -0.43923510D-04
  0.13227591D-04  0.71056267D-03  0.43051488D-03 -0.76793852D-04 -0.19979669D-02
 -0.36034157D-02 -0.53132343D-02 -0.32768384D-02 -0.33792377D-03  0.19829214D-04
  0.11059604D-01  0.79951053D-03 -0.13989031D-02  0.60875766D-02  0.32843137D-03
 -0.64649191D-03  0.96966572D-03 -0.28748825D-04 -0.38474279D-04  0.90436384D-03
 -0.69406216D-03 -0.21030167D-03 -0.56987130D-02  0.40255690D-02  0.24337888D-02
  0.12931400D-05  0.20510666D-04 -0.21803806D-04 -0.58793622D-03  0.33554962D-03
  0.64892675D-04
MO    4     MO 0.0        OCC NO =    2.0000000  ORB. ENERGY =    0.000000
  0.45964427D-01  0.85670135D-01  0.14526575D+00  0.21984427D+00  0.27423840D+00
  0.23533734D+00  0.90121700D-01  0.28235868D-03  0.30295234D-02  0.11167394D-01
  0.32652804D-01  0.39348216D-01 -0.47399096D-01 -0.24911185D-01  0.51142735D-02
  0.17393403D-02  0.87113094D-01  0.84470398D-01  0.56983232D-01  0.13970278D+01
  0.13546470D+01  0.91383686D+00  0.36404443D+00  0.35300064D+00  0.23813214D+00
  0.19669241D-01  0.28750434D+00  0.75638071D-01  0.32378252D-02  0.25536673D-01
  0.66479575D-02  0.10453130D-03  0.24392294D-03  0.14615098D-03  0.14715000D-01
 -0.82672841D-02 -0.64477162D-02 -0.31685726D-03 -0.34593675D-02 -0.12918855D+00
  0.13290626D-02  0.13166308D-02 -0.26456933D-02  0.15334410D-04 -0.88902374D-03
 -0.16136389D-01 -0.50004862D-03  0.64672045D-03 -0.14667183D-03  0.11793452D-04
 -0.60363390D-04  0.13469734D-02 -0.51635443D-03  0.69188271D-02  0.92117346D-04
  0.11630765D-02 -0.14554220D-01 -0.42118934D-02  0.38598685D-03 -0.62022612D-02
  0.39355413D-02  0.33155832D-04 -0.18119696D-04  0.17974222D-03  0.34610584D-03
  0.27231719D-04 -0.68239952D-03  0.26398028D-03  0.27127370D-04  0.14317285D-03
 -0.13022978D-02 -0.46697153D-04 -0.47234282D-01 -0.85188972D-01 -0.12561109D+00
 -0.86109823D-01 -0.90679710D-02  0.98046198D-04  0.12971548D-02 -0.35306106D-01
 -0.31168731D-01  0.70819970D-03 -0.11532201D-01 -0.10832619D-01  0.10764565D-03
  0.40324721D-03  0.16348409D-03  0.87495218D-02 -0.72959986D-02 -0.14535232D-02
  0.65935808D-03  0.45359317D-03 -0.25162270D-01 -0.10757047D-03  0.25395295D-03
 -0.14638248D-03  0.70758064D-04  0.42870813D-04 -0.53883540D-04  0.25850568D-01
  0.46622564D-01  0.68744943D-01  0.48597269D-01  0.62555840D-02 -0.13360244D-03
  0.11013190D-02 -0.10258812D-01  0.20051223D-01  0.60620288D-03 -0.39977989D-02
  0.90118880D-02  0.96559632D-04  0.19308561D-03  0.42950869D-03 -0.50468834D-02
  0.21527415D-02  0.28941419D-02 -0.56747972D-03  0.40086748D-03 -0.15309287D-01
 -0.43919422D-04 -0.14445580D-03  0.18837522D-03 -0.58546882D-04  0.33414141D-04
 -0.87894072D-03
MO    5     MO 0.0        OCC NO =    2.0000000  ORB. ENERGY =    0.000000
 -0.11636570D+00 -0.21688653D+00 -0.36776159D+00 -0.55656807D+00 -0.69427479D+00
 -0.59579106D+00 -0.22815633D+00 -0.16692781D-02 -0.17910259D-01 -0.66020587D-01
 -0.19304032D+00 -0.23262298D+00  0.28021903D+00  0.15846238D+00  0.10264250D+00
  0.92108066D-02  0.12308917D+00  0.11935509D+00  0.80516240D-01  0.14805157D+00
  0.14356022D+00  0.96844879D-01  0.68254442D+00  0.66183849D+00  0.44647234D+00
  0.27792269D-01  0.32233930D-01  0.14440831D+00  0.45749864D-02  0.33075346D-02
  0.22143879D-01  0.14770077D-03  0.34675286D-04  0.45491213D-03 -0.25966979D-02
  0.20895301D-01 -0.18298603D-01 -0.44771338D-03 -0.48880216D-02 -0.13228172D-01
 -0.31575189D-02  0.79879375D-02 -0.48304186D-02  0.21667234D-04 -0.12561739D-02
 -0.34499319D-02 -0.36385448D-03  0.63504834D-03 -0.27119386D-03  0.16663927D-04
 -0.85292340D-04  0.83783321D-04 -0.72959916D-03  0.72397658D-03  0.25464764D-02
  0.16434053D-02 -0.20365166D-02 -0.23572943D-02  0.54539220D-03 -0.13541311D-03
 -0.52821349D-02  0.46848570D-04 -0.25602792D-04  0.56566802D-04  0.17265481D-04
  0.38477910D-04 -0.28606255D-03  0.11444125D-03  0.38330466D-04  0.11636214D-03
 -0.16623770D-03 -0.65982204D-04  0.40937646D-02  0.73832730D-02  0.10886632D-01
 -0.17683483D-01 -0.77699262D-02 -0.12607546D-03  0.18328555D-02  0.74791709D-02
  0.15073345D-01  0.10006729D-02 -0.49610295D-02  0.22486105D-02  0.15210128D-03
 -0.47676276D-03  0.45062473D-03 -0.15123631D-03 -0.20672545D-02  0.22184908D-02
  0.93166063D-03  0.64091867D-03  0.33065069D-02  0.14017534D-03 -0.23664222D-03
  0.96466874D-04  0.99979821D-04  0.60575657D-04  0.74000323D-04  0.94911966D-02
  0.17117764D-01  0.25240133D-01 -0.45349434D-02 -0.64835197D-02 -0.16145518D-03
  0.15561431D-02 -0.95468808D-02  0.17454108D-01  0.85655333D-03  0.37778500D-02
  0.37467484D-02  0.13643695D-03  0.63556528D-03  0.40140351D-03 -0.87425221D-03
 -0.17703877D-02  0.26446399D-02 -0.80183823D-03  0.56641825D-03 -0.51609276D-02
  0.18160233D-03 -0.32980469D-03  0.14820235D-03 -0.82725649D-04  0.47213557D-04
 -0.11314370D-03
END DATA
 TOTAL ENERGY =    -76.463430143545 THE VIRIAL(-V/T)=   2.00617667
