 75
GAUSSIAN              5 MOL ORBITALS    126 PRIMITIVES        3 NUCLEI   B3LYP
  O    1    (CENTRE  1)   0.00000000  0.00000000  0.00815606  CHARGE =  8.0
  H    2    (CENTRE  2)   0.00000000 -1.44255835 -1.19178791  CHARGE =  1.0
  H    3    (CENTRE  3)   0.00000000  1.53704465 -1.09730160  CHARGE =  1.0
CENTRE ASSIGNMENTS    1  1  1  1  1  1  1  1  1  1  1  1  1  1  1  1  1  1  1  1
CENTRE ASSIGNMENTS    1  1  1  1  1  1  1  1  1  1  1  1  1  1  1  1  1  1  1  1
CENTRE ASSIGNMENTS    1  1  1  1  1  1  1  1  1  1  1  1  1  1  1  1  1  1  1  1
CENTRE ASSIGNMENTS    1  1  1  1  1  1  1  1  1  1  1  1  2  2  2  2  2  2  2  2
CENTRE ASSIGNMENTS    2  2  2  2  2  2  2  2  2  2  2  2  2  2  2  2  2  2  2  3
CENTRE ASSIGNMENTS    3  3  3  3  3  3  3  3  3  3  3  3  3  3  3  3  3  3  3  3
CENTRE ASSIGNMENTS    3  3  3  3  3  3
TYPE ASSIGNMENTS      1  1  1  1  1  1  1  1  1  1  1  1  1  1  1  1  2  2  2  3
TYPE ASSIGNMENTS      3  3  4  4  4  2  3  4  2  3  4  2  3  4  5  6  7  8  9 10
TYPE ASSIGNMENTS      5  6  7  8  9 10  5  6  7  8  9 10 11 12 13 17 14 15 18 19
TYPE ASSIGNMENTS     16 20 11 12 13 17 14 15 18 19 16 20  1  1  1  1  1  1  2  3
TYPE ASSIGNMENTS      4  2  3  4  2  3  4  5  6  7  8  9 10  5  6  7  8  9 10  1
TYPE ASSIGNMENTS      1  1  1  1  1  2  3  4  2  3  4  2  3  4  5  6  7  8  9 10
TYPE ASSIGNMENTS      5  6  7  8  9 10
EXPONENTS  0.1533000D+05 0.2299000D+04 0.5224000D+03 0.1473000D+03 0.4755000D+02
EXPONENTS  0.1676000D+02 0.6207000D+01 0.5224000D+03 0.1473000D+03 0.4755000D+02
EXPONENTS  0.1676000D+02 0.6207000D+01 0.6882000D+00 0.1752000D+01 0.2384000D+00
EXPONENTS  0.7376000D-01 0.3446000D+02 0.7749000D+01 0.2280000D+01 0.3446000D+02
EXPONENTS  0.7749000D+01 0.2280000D+01 0.3446000D+02 0.7749000D+01 0.2280000D+01
EXPONENTS  0.7156000D+00 0.7156000D+00 0.7156000D+00 0.2140000D+00 0.2140000D+00
EXPONENTS  0.2140000D+00 0.5974000D-01 0.5974000D-01 0.5974000D-01 0.2314000D+01
EXPONENTS  0.2314000D+01 0.2314000D+01 0.2314000D+01 0.2314000D+01 0.2314000D+01
EXPONENTS  0.6450000D+00 0.6450000D+00 0.6450000D+00 0.6450000D+00 0.6450000D+00
EXPONENTS  0.6450000D+00 0.2140000D+00 0.2140000D+00 0.2140000D+00 0.2140000D+00
EXPONENTS  0.2140000D+00 0.2140000D+00 0.1428000D+01 0.1428000D+01 0.1428000D+01
EXPONENTS  0.1428000D+01 0.1428000D+01 0.1428000D+01 0.1428000D+01 0.1428000D+01
EXPONENTS  0.1428000D+01 0.1428000D+01 0.5000000D+00 0.5000000D+00 0.5000000D+00
EXPONENTS  0.5000000D+00 0.5000000D+00 0.5000000D+00 0.5000000D+00 0.5000000D+00
EXPONENTS  0.5000000D+00 0.5000000D+00 0.3387000D+02 0.5095000D+01 0.1159000D+01
EXPONENTS  0.3258000D+00 0.1027000D+00 0.2526000D-01 0.1407000D+01 0.1407000D+01
EXPONENTS  0.1407000D+01 0.3880000D+00 0.3880000D+00 0.3880000D+00 0.1020000D+00
EXPONENTS  0.1020000D+00 0.1020000D+00 0.1057000D+01 0.1057000D+01 0.1057000D+01
EXPONENTS  0.1057000D+01 0.1057000D+01 0.1057000D+01 0.2470000D+00 0.2470000D+00
EXPONENTS  0.2470000D+00 0.2470000D+00 0.2470000D+00 0.2470000D+00 0.3387000D+02
EXPONENTS  0.5095000D+01 0.1159000D+01 0.3258000D+00 0.1027000D+00 0.2526000D-01
EXPONENTS  0.1407000D+01 0.1407000D+01 0.1407000D+01 0.3880000D+00 0.3880000D+00
EXPONENTS  0.3880000D+00 0.1020000D+00 0.1020000D+00 0.1020000D+00 0.1057000D+01
EXPONENTS  0.1057000D+01 0.1057000D+01 0.1057000D+01 0.1057000D+01 0.1057000D+01
EXPONENTS  0.2470000D+00 0.2470000D+00 0.2470000D+00 0.2470000D+00 0.2470000D+00
EXPONENTS  0.2470000D+00
MO    1     MO 0.0        OCC NO =    2.0000000  ORB. ENERGY =    0.000000
  0.32576522D+00  0.60717280D+00  0.10295468D+01  0.15581096D+01  0.19436189D+01
  0.16679142D+01  0.63872254D+00  0.27185531D-03  0.29168291D-02  0.10751981D-01
  0.31438163D-01  0.37884515D-01 -0.45635913D-01  0.97138469D-02 -0.49918997D-01
 -0.80190365D-02 -0.29592627D+00 -0.28694894D+00 -0.19357406D+00 -0.49096997D-01
 -0.47607572D-01 -0.32115787D-01 -0.12165427D+01 -0.11796372D+01 -0.79577627D+00
 -0.66866804D-01 -0.99219051D-02 -0.26379075D+00 -0.11150946D-01 -0.69673516D-03
 -0.33393236D-01 -0.36589129D-03  0.62600558D-06 -0.64901995D-03 -0.31351567D-01
  0.58688019D-05  0.31345698D-01 -0.28554037D-03  0.11522826D-01  0.68529819D-02
 -0.37832192D-02 -0.55699468D-02  0.93531660D-02 -0.11302493D-03  0.31534322D-02
  0.21930815D-03  0.51399399D-03 -0.10226501D-02  0.50865614D-03 -0.12947568D-04
  0.23366506D-03 -0.17430218D-03  0.17348124D-02 -0.39488540D-05 -0.11664919D-02
 -0.35957158D-02  0.52186741D-03  0.14253144D-01 -0.16087215D-02 -0.51002085D-03
 -0.10753669D-01 -0.16491410D-03  0.91408444D-04 -0.75565147D-04 -0.55798676D-03
 -0.15452272D-03  0.53590711D-04  0.19572309D-03 -0.11970261D-03  0.17310473D-03
  0.14782372D-02  0.16679906D-04  0.22203807D-01  0.40045481D-01  0.59047038D-01
  0.46777743D-01  0.87461670D-02  0.10595336D-03 -0.38374557D-02  0.18284001D-01
  0.77400315D-03 -0.20989284D-02  0.10196584D-01  0.82714656D-03 -0.33081989D-03
  0.36757960D-03 -0.69727852D-03 -0.26605366D-02  0.48670502D-02 -0.22065136D-02
 -0.18872925D-02 -0.15216215D-02  0.59669598D-02 -0.20479938D-03  0.31341768D-03
 -0.10861830D-03 -0.19084822D-03 -0.12828345D-03 -0.20384217D-04  0.17541216D-01
  0.31636306D-01  0.46647714D-01  0.38267987D-01  0.78612073D-02  0.12701666D-03
 -0.37593571D-02 -0.15562246D-01 -0.35360225D-02 -0.20586415D-02 -0.93492566D-02
 -0.10570035D-02 -0.32621712D-03 -0.38850725D-03 -0.72278100D-03 -0.18601937D-02
  0.47545965D-02 -0.28944028D-02  0.19575155D-02 -0.13617211D-02 -0.25534334D-02
 -0.21182557D-03  0.33797892D-03 -0.12615335D-03  0.19445959D-03 -0.11007040D-03
  0.12126372D-03
MO    2     MO 0.0        OCC NO =    2.0000000  ORB. ENERGY =    0.000000
  0.27726713D+00  0.51678035D+00  0.87627370D+00  0.13261471D+01  0.16542639D+01
  0.14196046D+01  0.54363313D+00  0.22408202D-03  0.24042530D-02  0.88625293D-02
  0.25913516D-01  0.31227047D-01 -0.37616287D-01  0.10234089D-01  0.11164930D-01
  0.33006501D-02 -0.20477906D+00 -0.19856680D+00 -0.13395199D+00  0.10116751D+01
  0.98098453D+00  0.66176637D+00  0.68198478D+00  0.66129583D+00  0.44610626D+00
 -0.46271394D-01  0.21406584D+00  0.14998989D+00 -0.77163824D-02  0.22292275D-01
  0.18023131D-01 -0.25319440D-03  0.24763692D-03  0.34190949D-03  0.19165946D-01
  0.79019512D-03 -0.19956141D-01 -0.19759208D-03  0.79737209D-02 -0.94990575D-01
  0.34433480D-02  0.21854154D-02 -0.56287634D-02 -0.78212520D-04  0.21821547D-02
 -0.14775265D-01 -0.22644643D-03  0.49865052D-03 -0.27220409D-03 -0.89596327D-05
  0.16169470D-03  0.18938518D-03  0.12004789D-02  0.44930461D-02  0.40122600D-03
 -0.24882120D-02 -0.11784195D-01 -0.84021911D-02 -0.11132248D-02 -0.16949431D-02
  0.71985131D-02 -0.11411949D-03  0.63254050D-04  0.10841826D-03  0.25099061D-03
 -0.10692872D-03 -0.85820222D-03 -0.42964849D-03 -0.82833430D-04  0.53294743D-03
 -0.32332335D-03  0.11542387D-04 -0.40270676D-01 -0.72629822D-01 -0.10709263D+00
 -0.72242359D-01 -0.97515305D-02  0.54514506D-04 -0.26554944D-02 -0.24808849D-01
 -0.20963831D-01 -0.14524448D-02 -0.10007656D-01 -0.82282420D-02 -0.22892522D-03
  0.10630571D-03  0.25663035D-03  0.66715421D-02 -0.46913281D-02 -0.19802140D-02
 -0.13059942D-02 -0.10529522D-02 -0.18682478D-01  0.18467214D-03 -0.41860692D-04
 -0.14281144D-03 -0.13206573D-03 -0.88771312D-04 -0.46612809D-03  0.11937263D-01
  0.21529345D-01  0.31745007D-01  0.21551517D-01  0.19577614D-02 -0.14117771D-03
 -0.26014507D-02 -0.28357435D-03  0.15276220D-01 -0.14245665D-02  0.88794648D-03
  0.67617347D-02 -0.22574013D-03  0.38153874D-03  0.50624939D-03 -0.22296006D-02
 -0.11822965D-02  0.34118971D-02  0.13545880D-02 -0.94230214D-03 -0.81671053D-02
  0.97434584D-05 -0.23300993D-03  0.22326647D-03  0.13456478D-03 -0.76168000D-04
 -0.60436537D-03
MO    3     MO 0.0        OCC NO =    2.0000000  ORB. ENERGY =    0.000000
 -0.26058319D+00 -0.48568422D+00 -0.82354584D+00 -0.12463491D+01 -0.15547222D+01
 -0.13341830D+01 -0.51092120D+00 -0.33165610D-03 -0.35584523D-02 -0.13117125D-01
 -0.38353704D-01 -0.46218079D-01  0.55674574D-01  0.25143784D-02 -0.72312462D-02
 -0.33804853D-02  0.16055410D-01  0.15568347D-01  0.10502315D-01  0.10389642D+01
  0.10074458D+01  0.67961701D+00 -0.69221047D+00 -0.67121131D+00 -0.45279518D+00
  0.36278427D-02  0.22107188D+00 -0.15376263D+00  0.60499195D-03  0.23513615D-01
 -0.18927637D-01  0.19851345D-04  0.27308193D-03 -0.37175643D-03 -0.22558908D-01
  0.68357681D-02  0.15723140D-01  0.15491925D-04 -0.62516821D-03 -0.94630039D-01
 -0.43310724D-02 -0.94795356D-03  0.52790259D-02  0.61321411D-05 -0.17108872D-03
 -0.15882836D-01  0.19847008D-03 -0.52492850D-03  0.32645843D-03  0.70246722D-06
 -0.12677442D-04 -0.35319767D-04 -0.94121838D-04  0.49842461D-02 -0.39856389D-03
  0.19508471D-03 -0.12434047D-01  0.91514440D-02  0.87280804D-04 -0.25186910D-02
 -0.79557524D-02  0.89473758D-05 -0.49593435D-05  0.66600453D-04 -0.22982277D-03
  0.83835937D-05 -0.91035676D-03  0.47515681D-03  0.64944370D-05  0.71055541D-03
  0.21431151D-03 -0.90496436D-06 -0.87519265D-02 -0.15784460D-01 -0.23274177D-01
 -0.16932871D-01 -0.14639687D-02  0.13966876D-03  0.20820025D-03  0.36274727D-02
 -0.14128762D-01  0.11387686D-03  0.22600466D-02 -0.64533719D-02  0.17948555D-04
  0.42573079D-03 -0.53188948D-03  0.18505152D-02  0.22372402D-02 -0.40877554D-02
  0.10239461D-03  0.82555214D-04 -0.64042613D-02 -0.26847103D-04  0.30351320D-03
 -0.27666609D-03  0.10354425D-04  0.69599881D-05 -0.51160089D-03  0.42227380D-01
  0.76158819D-01  0.11229613D+00  0.74223368D-01  0.10072079D-01 -0.52211078D-04
  0.20396303D-03 -0.27643120D-01  0.19093659D-01  0.11169111D-03 -0.10957641D-01
  0.73184111D-02  0.17698833D-04  0.10434738D-03 -0.29545440D-03 -0.66305477D-02
  0.61375359D-02  0.49301176D-03 -0.10620454D-03  0.73879855D-04 -0.17838265D-01
 -0.22152973D-03  0.11690247D-03  0.10462726D-03 -0.10550359D-04  0.59718434D-05
 -0.52635774D-03
MO    4     MO 0.0        OCC NO =    2.0000000  ORB. ENERGY =    0.000000
  0.84662397D-01  0.15779679D+00  0.26756663D+00  0.40493364D+00  0.50512280D+00
  0.43347051D+00  0.16599618D+00  0.38211867D-03  0.40998826D-02  0.15112939D-01
  0.44189348D-01  0.53250313D-01 -0.64145645D-01 -0.29492301D-01 -0.24125723D-01
 -0.22509950D-02  0.17276960D+01  0.16752840D+01  0.11301367D+01  0.11372744D+00
  0.11027736D+00  0.74392455D-01 -0.17718185D+00 -0.17180679D+00 -0.11589985D+00
  0.39038613D+00  0.24088548D-01 -0.37295209D-01  0.65102180D-01  0.25847745D-02
 -0.54890065D-02  0.21361703D-02  0.30832158D-04 -0.10644790D-03 -0.63248226D-03
 -0.35197364D-02  0.41522187D-02  0.16670604D-02 -0.67273313D-01 -0.10526479D-01
  0.68527747D-03 -0.18564841D-02  0.11712066D-02  0.65986952D-03 -0.18410573D-01
 -0.17849776D-02  0.99113422D-04 -0.16777399D-03  0.68660572D-04  0.75591332D-04
 -0.13641985D-02 -0.84509323D-05 -0.10128295D-01  0.46518451D-03 -0.61643256D-03
  0.20992742D-01 -0.12864442D-02  0.93549408D-03  0.93921424D-02 -0.10910933D-03
  0.91380361D-03  0.96281225D-03 -0.53366673D-03  0.31277705D-07 -0.54396345D-04
  0.90214460D-03 -0.85520898D-04 -0.66931665D-04  0.69885558D-03  0.85427065D-04
  0.23012070D-03 -0.97381713D-04 -0.33695030D-02 -0.60770375D-02 -0.89605882D-02
 -0.95644041D-03  0.12447289D-02  0.45712132D-04  0.22404084D-01 -0.22988813D-02
 -0.53129130D-02  0.12254100D-01  0.79161131D-03 -0.12709964D-02  0.19314142D-02
  0.16353316D-03 -0.10228329D-03  0.54246034D-03  0.35193876D-03 -0.89439910D-03
  0.11018514D-01  0.88836296D-02 -0.20254940D-02 -0.30655289D-04  0.76747297D-04
 -0.46092008D-04  0.11142225D-02  0.74895277D-03 -0.49057646D-04  0.20964911D-02
  0.37811080D-02  0.55752416D-02  0.87614708D-02  0.24794100D-02  0.25838105D-04
  0.21948124D-01 -0.88419857D-04 -0.14991294D-02  0.12018895D-01 -0.17045307D-02
  0.17338542D-03  0.19045420D-02 -0.10784314D-03 -0.83522090D-04 -0.39098131D-03
  0.70500185D-03 -0.31402054D-03 -0.11428495D-01  0.79500885D-02 -0.58198462D-03
 -0.52043889D-04  0.59122074D-04 -0.70781849D-05 -0.11353067D-02  0.64262016D-03
 -0.53047394D-04
MO    5     MO 0.0        OCC NO =    2.0000000  ORB. ENERGY =    0.000000
  0.34436503D-01  0.64183979D-01  0.10883296D+00  0.16470711D+00  0.20545913D+00
  0.17631450D+00  0.67519087D-01 -0.16405909D-02 -0.17602463D-01 -0.64885994D-01
 -0.18972284D+00 -0.22862525D+00  0.27540334D+00  0.17346858D+00  0.90987475D-01
  0.69723412D-02  0.32215442D+00  0.31238142D+00  0.21073066D+00 -0.63716826D-01
 -0.61783888D-01 -0.41679046D-01  0.30072337D+00  0.29160051D+00  0.19671198D+00
  0.72793256D-01 -0.13245324D-01  0.60702819D-01  0.12139262D-01 -0.15036779D-02
  0.11162503D-01  0.39832049D-03 -0.20974203D-04  0.21055795D-03 -0.12099906D-01
  0.19043152D-01 -0.69432462D-02  0.31084802D-03 -0.12544102D-01  0.70828659D-02
 -0.47456818D-02  0.62761632D-02 -0.15304813D-02  0.12304241D-03 -0.34329232D-02
  0.11737797D-02 -0.21322552D-03  0.30350211D-03 -0.90276593D-04  0.14095120D-04
 -0.25437495D-03  0.73543629D-05 -0.18885701D-02  0.10923842D-03  0.25092757D-02
  0.39144066D-02  0.50750856D-03  0.22787440D-02  0.17513036D-02 -0.83522381D-03
 -0.98065712D-02  0.17953056D-03 -0.99510039D-04 -0.39833628D-05 -0.49836570D-04
  0.16821818D-03  0.77209015D-05  0.24195019D-03  0.13031194D-03  0.42291869D-05
 -0.92440478D-04 -0.18158258D-04  0.13304463D-01  0.23995146D-01  0.35380829D-01
  0.30213563D-02 -0.47669596D-02 -0.12013275D-03  0.41775721D-02  0.13173530D-01
  0.16582222D-01  0.22849579D-02 -0.13529876D-02  0.26673843D-02  0.36014069D-03
 -0.49300963D-03  0.97666299D-04 -0.12045401D-02 -0.51019245D-03  0.17147325D-02
  0.20545646D-02  0.16564839D-02  0.47873339D-02  0.95002679D-04 -0.16542594D-03
  0.70423258D-04  0.20776323D-03  0.13965330D-03 -0.26430911D-04  0.10353205D-01
  0.18672432D-01  0.27532490D-01 -0.18346566D-02 -0.53332557D-02 -0.10903092D-03
  0.40925516D-02 -0.12623645D-01  0.13550431D-01  0.22411003D-02  0.16637442D-02
  0.20325940D-02  0.35512998D-03  0.45880627D-03  0.12051305D-03 -0.69874160D-03
 -0.47079629D-03  0.11695379D-02 -0.21310115D-02  0.14824114D-02 -0.35268396D-02
  0.10176261D-03 -0.16054599D-03  0.58783378D-04 -0.21169469D-03  0.11982601D-03
  0.37945804D-04
END DATA
 TOTAL ENERGY =    -76.464003220187 THE VIRIAL(-V/T)=   2.00758041
