 75
GAUSSIAN              5 MOL ORBITALS    126 PRIMITIVES        3 NUCLEI   B3LYP
  O    1    (CENTRE  1)   0.00000000  0.00000000  0.00815606  CHARGE =  8.0
  H    2    (CENTRE  2)   0.00000000 -1.44255835 -1.00281530  CHARGE =  1.0
  H    3    (CENTRE  3)   0.00000000  1.34807204 -1.09730160  CHARGE =  1.0
CENTRE ASSIGNMENTS    1  1  1  1  1  1  1  1  1  1  1  1  1  1  1  1  1  1  1  1
CENTRE ASSIGNMENTS    1  1  1  1  1  1  1  1  1  1  1  1  1  1  1  1  1  1  1  1
CENTRE ASSIGNMENTS    1  1  1  1  1  1  1  1  1  1  1  1  1  1  1  1  1  1  1  1
CENTRE ASSIGNMENTS    1  1  1  1  1  1  1  1  1  1  1  1  2  2  2  2  2  2  2  2
CENTRE ASSIGNMENTS    2  2  2  2  2  2  2  2  2  2  2  2  2  2  2  2  2  2  2  3
CENTRE ASSIGNMENTS    3  3  3  3  3  3  3  3  3  3  3  3  3  3  3  3  3  3  3  3
CENTRE ASSIGNMENTS    3  3  3  3  3  3
TYPE ASSIGNMENTS      1  1  1  1  1  1  1  1  1  1  1  1  1  1  1  1  2  2  2  3
TYPE ASSIGNMENTS      3  3  4  4  4  2  3  4  2  3  4  2  3  4  5  6  7  8  9 10
TYPE ASSIGNMENTS      5  6  7  8  9 10  5  6  7  8  9 10 11 12 13 17 14 15 18 19
TYPE ASSIGNMENTS     16 20 11 12 13 17 14 15 18 19 16 20  1  1  1  1  1  1  2  3
TYPE ASSIGNMENTS      4  2  3  4  2  3  4  5  6  7  8  9 10  5  6  7  8  9 10  1
TYPE ASSIGNMENTS      1  1  1  1  1  2  3  4  2  3  4  2  3  4  5  6  7  8  9 10
TYPE ASSIGNMENTS      5  6  7  8  9 10
EXPONENTS  0.1533000D+05 0.2299000D+04 0.5224000D+03 0.1473000D+03 0.4755000D+02
EXPONENTS  0.1676000D+02 0.6207000D+01 0.5224000D+03 0.1473000D+03 0.4755000D+02
EXPONENTS  0.1676000D+02 0.6207000D+01 0.6882000D+00 0.1752000D+01 0.2384000D+00
EXPONENTS  0.7376000D-01 0.3446000D+02 0.7749000D+01 0.2280000D+01 0.3446000D+02
EXPONENTS  0.7749000D+01 0.2280000D+01 0.3446000D+02 0.7749000D+01 0.2280000D+01
EXPONENTS  0.7156000D+00 0.7156000D+00 0.7156000D+00 0.2140000D+00 0.2140000D+00
EXPONENTS  0.2140000D+00 0.5974000D-01 0.5974000D-01 0.5974000D-01 0.2314000D+01
EXPONENTS  0.2314000D+01 0.2314000D+01 0.2314000D+01 0.2314000D+01 0.2314000D+01
EXPONENTS  0.6450000D+00 0.6450000D+00 0.6450000D+00 0.6450000D+00 0.6450000D+00
EXPONENTS  0.6450000D+00 0.2140000D+00 0.2140000D+00 0.2140000D+00 0.2140000D+00
EXPONENTS  0.2140000D+00 0.2140000D+00 0.1428000D+01 0.1428000D+01 0.1428000D+01
EXPONENTS  0.1428000D+01 0.1428000D+01 0.1428000D+01 0.1428000D+01 0.1428000D+01
EXPONENTS  0.1428000D+01 0.1428000D+01 0.5000000D+00 0.5000000D+00 0.5000000D+00
EXPONENTS  0.5000000D+00 0.5000000D+00 0.5000000D+00 0.5000000D+00 0.5000000D+00
EXPONENTS  0.5000000D+00 0.5000000D+00 0.3387000D+02 0.5095000D+01 0.1159000D+01
EXPONENTS  0.3258000D+00 0.1027000D+00 0.2526000D-01 0.1407000D+01 0.1407000D+01
EXPONENTS  0.1407000D+01 0.3880000D+00 0.3880000D+00 0.3880000D+00 0.1020000D+00
EXPONENTS  0.1020000D+00 0.1020000D+00 0.1057000D+01 0.1057000D+01 0.1057000D+01
EXPONENTS  0.1057000D+01 0.1057000D+01 0.1057000D+01 0.2470000D+00 0.2470000D+00
EXPONENTS  0.2470000D+00 0.2470000D+00 0.2470000D+00 0.2470000D+00 0.3387000D+02
EXPONENTS  0.5095000D+01 0.1159000D+01 0.3258000D+00 0.1027000D+00 0.2526000D-01
EXPONENTS  0.1407000D+01 0.1407000D+01 0.1407000D+01 0.3880000D+00 0.3880000D+00
EXPONENTS  0.3880000D+00 0.1020000D+00 0.1020000D+00 0.1020000D+00 0.1057000D+01
EXPONENTS  0.1057000D+01 0.1057000D+01 0.1057000D+01 0.1057000D+01 0.1057000D+01
EXPONENTS  0.2470000D+00 0.2470000D+00 0.2470000D+00 0.2470000D+00 0.2470000D+00
EXPONENTS  0.2470000D+00
MO    1     MO 0.0        OCC NO =    2.0000000  ORB. ENERGY =    0.000000
 -0.17204088D+00 -0.32065592D+00 -0.54371717D+00 -0.82285812D+00 -0.10264506D+01
 -0.88084736D+00 -0.33731774D+00 -0.38575187D-03 -0.41388645D-02 -0.15256634D-01
 -0.44609502D-01 -0.53756619D-01  0.64755544D-01  0.19318581D-01  0.69432461D-01
  0.95492215D-02  0.24211928D+00  0.23477425D+00  0.15837732D+00  0.10288328D+00
  0.99762176D-01  0.67298975D-01  0.15285816D+01  0.14822100D+01  0.99989009D+00
  0.54609061D-01  0.21957489D-01  0.32912734D+00  0.88487029D-02  0.25346568D-02
  0.39621584D-01  0.27651954D-03  0.39295586D-04  0.77988308D-03  0.39168386D-01
  0.32057042D-02 -0.42374090D-01 -0.27486155D-03 -0.10400492D-01 -0.70126099D-02
  0.41998027D-02  0.73836515D-02 -0.11583454D-01 -0.11003983D-03 -0.24979981D-02
 -0.21034586D-02 -0.97020194D-03  0.15000611D-02 -0.52985915D-03 -0.10580583D-04
 -0.14734343D-03 -0.18955642D-03 -0.14735958D-02  0.71606169D-03  0.17623864D-02
  0.31252693D-02 -0.11187899D-02 -0.17458208D-01  0.12955180D-02 -0.10293951D-02
  0.12171048D-01 -0.14775611D-03 -0.27078662D-04 -0.98743340D-04  0.59579506D-03
  0.23015012D-04 -0.40947797D-04  0.22103135D-03  0.58220974D-04  0.33717782D-03
 -0.20084165D-02  0.23258060D-04 -0.25264831D-01 -0.45566164D-01 -0.67187282D-01
 -0.55449987D-01 -0.88712633D-02 -0.10879503D-03  0.35870837D-02 -0.24691010D-01
  0.31443054D-02  0.19383899D-02 -0.11989975D-01  0.17267549D-02  0.29271527D-03
 -0.11642012D-03  0.11650317D-02  0.34918032D-02 -0.76074985D-02  0.41156953D-02
  0.18100741D-02  0.12181850D-02 -0.51452445D-02  0.32935765D-04 -0.13527855D-03
  0.10234278D-03  0.19294177D-03  0.10991241D-03  0.74630101D-03 -0.22968339D-01
 -0.41424346D-01 -0.61080173D-01 -0.51348482D-01 -0.81579346D-02 -0.11112260D-03
  0.36713266D-02  0.24104934D-01  0.32232135D-02  0.19830042D-02  0.11582705D-01
  0.17751003D-02  0.29724497D-03  0.17824271D-03  0.12007100D-02  0.30196688D-02
 -0.70567621D-02  0.40370933D-02 -0.17504896D-02  0.13826721D-02  0.54602896D-02
 -0.16022649D-05 -0.18341437D-03  0.18501663D-03 -0.18857571D-03  0.12865375D-03
 -0.81640525D-03
MO    2     MO 0.0        OCC NO =    2.0000000  ORB. ENERGY =    0.000000
  0.46600345D+00  0.86855382D+00  0.14727550D+01  0.22288582D+01  0.27803249D+01
  0.23859324D+01  0.91368535D+00  0.17227439D-03  0.18483912D-02  0.68135179D-02
  0.19922327D-01  0.24007373D-01 -0.28919424D-01  0.36720994D-01  0.14449475D-01
  0.28681018D-02 -0.31307451D+00 -0.30357697D+00 -0.20479123D+00  0.65297768D-02
  0.63316870D-02  0.42713186D-02  0.53008689D+00  0.51400597D+00  0.34674539D+00
 -0.70612738D-01  0.21298518D-02  0.11411833D+00 -0.11441895D-01  0.49562961D-03
  0.12575717D-01 -0.35755608D-03  0.12710437D-04  0.24529244D-03  0.13948066D-01
  0.72903979D-03 -0.14677105D-01  0.35541221D-03  0.13448450D-01 -0.13291341D-05
  0.21355381D-02  0.19525711D-02 -0.40881092D-02  0.14228800D-03  0.32300589D-02
 -0.61091548D-03 -0.36087415D-03  0.53527067D-03 -0.17439652D-03  0.13681318D-04
  0.19052375D-03 -0.13340876D-03  0.19054463D-02  0.32494071D-04  0.10621100D-02
 -0.40411576D-02 -0.25565116D-03 -0.51767074D-02 -0.16751812D-02  0.15816895D-03
  0.19903774D-02  0.19105737D-03  0.35014308D-04 -0.16801042D-04  0.11712258D-03
 -0.29759769D-04 -0.18064872D-04 -0.20435742D-03 -0.75283155D-04  0.68467999D-04
 -0.14701031D-03 -0.30074045D-04 -0.11295705D-01 -0.20372269D-01 -0.30038899D-01
 -0.21795728D-01 -0.27960097D-02 -0.28937844D-04 -0.46383109D-02 -0.12864999D-01
 -0.17706500D-02 -0.25064526D-02 -0.53261901D-02 -0.33671931D-03 -0.37849812D-03
 -0.35523746D-04  0.36277530D-03  0.28010439D-02 -0.42123075D-02  0.14112636D-02
 -0.23405327D-02 -0.15751851D-02 -0.62843872D-02  0.10094669D-04 -0.30231603D-04
  0.20136934D-04 -0.24948510D-03 -0.14212323D-03  0.23857679D-03 -0.12097598D-01
 -0.21818516D-01 -0.32171389D-01 -0.23760731D-01 -0.30246815D-02 -0.30629481D-04
 -0.47472419D-02  0.13737322D-01 -0.36200524D-02 -0.25641414D-02  0.56760645D-02
 -0.10615359D-02 -0.38435529D-03  0.71288693D-04  0.35393586D-03  0.31079550D-02
 -0.39475408D-02  0.83958582D-03  0.22634864D-02 -0.17878766D-02  0.79743436D-02
  0.11056272D-05 -0.45796971D-04  0.44691343D-04  0.24383953D-03 -0.16635689D-03
 -0.24139994D-03
MO    3     MO 0.0        OCC NO =    2.0000000  ORB. ENERGY =    0.000000
  0.11079256D+00  0.20649911D+00  0.35014826D+00  0.52991216D+00  0.66102365D+00
  0.56725663D+00  0.21722915D+00  0.30020865D-03  0.32210418D-02  0.11873367D-01
  0.34717027D-01  0.41835706D-01 -0.50395541D-01 -0.17978684D-01 -0.17234962D-01
 -0.14940886D-02  0.17280835D+01  0.16756597D+01  0.11303901D+01  0.53287964D-01
  0.51671400D-01  0.34857221D-01 -0.11994132D+00 -0.11630274D+00 -0.78457140D-01
  0.38976250D+00  0.10756206D-01 -0.25572338D-01  0.63156051D-01  0.83208585D-03
 -0.39538479D-02  0.19736092D-02  0.51986934D-05 -0.75799918D-04  0.15036572D-04
 -0.35431448D-02  0.35281083D-02 -0.19617757D-02 -0.74231672D-01 -0.49589589D-02
  0.41718744D-03 -0.12154277D-02  0.79824024D-03 -0.78538982D-03 -0.17829019D-01
 -0.45082481D-03  0.50589485D-04 -0.84185603D-04  0.33596118D-04 -0.75517037D-04
 -0.10516376D-02  0.82387277D-04 -0.10517529D-01  0.28186786D-03 -0.29941680D-03
  0.22306056D-01 -0.50875708D-03  0.76471458D-03  0.92465304D-02 -0.33684649D-03
  0.13353581D-03 -0.10545831D-02 -0.19326916D-03  0.78566839D-05 -0.30164963D-05
  0.16426558D-03 -0.24165563D-04 -0.44056103D-04  0.41554190D-03  0.59551183D-06
  0.53105592D-04  0.16600029D-03 -0.28868283D-02 -0.52065138D-02 -0.76770015D-02
 -0.14063386D-02  0.74894761D-03  0.25583732D-04  0.25602175D-01 -0.29162437D-02
 -0.43982439D-02  0.13834915D-01  0.13737283D-03 -0.12021679D-02  0.20892034D-02
  0.77056560D-04 -0.99914455D-04  0.69592901D-03 -0.16236635D-03 -0.53356265D-03
  0.12919084D-01  0.86945796D-02 -0.25153402D-02 -0.21076666D-04  0.45011569D-04
 -0.23934902D-04  0.13770877D-02  0.78448034D-03 -0.49903961D-04  0.10024426D-03
  0.18079466D-03  0.26658162D-03  0.43075689D-02  0.14065964D-02  0.17641022D-04
  0.26203444D-01  0.79843440D-03 -0.22038008D-02  0.14153341D-01 -0.85933027D-03
 -0.26750206D-03  0.21215334D-02 -0.66777178D-04 -0.81862249D-04  0.10499300D-03
  0.28723548D-03 -0.39222848D-03 -0.12493810D-01  0.98685774D-02  0.65553347D-03
 -0.18035213D-04  0.33410639D-04 -0.15375426D-04 -0.13459258D-02  0.91824334D-03
  0.12884682D-04
MO    4     MO 0.0        OCC NO =    2.0000000  ORB. ENERGY =    0.000000
  0.68779611D-02  0.12819388D-01  0.21737075D-01  0.32896751D-01  0.41036104D-01
  0.35215082D-01  0.13485506D-01  0.20094552D-03  0.21560136D-02  0.79474721D-02
  0.23237942D-01  0.28002850D-01 -0.33732401D-01 -0.19770860D-01 -0.11711924D-01
 -0.90115240D-03 -0.10387870D+00 -0.10072739D+00 -0.67950104D-01  0.14713651D+01
  0.14267292D+01  0.96246311D+00 -0.94641759D-01 -0.91770671D-01 -0.61907952D-01
 -0.23429436D-01  0.29555909D+00 -0.18717169D-01 -0.37964417D-02  0.24071609D-01
 -0.21038186D-02 -0.11863776D-03  0.18412996D-03 -0.29093842D-04  0.14903590D-02
 -0.75762711D-02  0.60859121D-02  0.11792642D-03  0.44622204D-02 -0.13739270D+00
  0.57003697D-03 -0.12659772D-02  0.69594023D-03  0.47211418D-04  0.10717395D-02
 -0.13446604D-01  0.52932089D-04  0.23116029D-04 -0.76048117D-04  0.45394863D-05
  0.63216129D-04  0.20045528D-02  0.63223056D-03  0.69989098D-02  0.24410238D-04
 -0.13408635D-02 -0.12722520D-01  0.19112046D-03 -0.55582820D-03 -0.82742094D-02
 -0.26435117D-03  0.63393184D-04  0.11617812D-04  0.12611903D-03  0.87224398D-05
 -0.98743459D-05 -0.46522723D-03 -0.22384034D-04 -0.24979089D-04  0.86870149D-04
 -0.37832855D-05 -0.99786231D-05 -0.40380257D-01 -0.72827456D-01 -0.10738404D+00
 -0.74074126D-01 -0.83215366D-02  0.99955591D-04 -0.15390001D-02 -0.27926838D-01
 -0.31966205D-01 -0.83164556D-03 -0.94474136D-02 -0.11992268D-01 -0.12558637D-03
  0.15137725D-03 -0.25573187D-03  0.82321019D-02 -0.55513780D-02 -0.26807239D-02
 -0.77659302D-03 -0.52264929D-03 -0.24733946D-01 -0.13017947D-04  0.13272379D-03
 -0.11970584D-03 -0.82779612D-04 -0.47156747D-04 -0.47441829D-03  0.37173043D-01
  0.67043113D-01  0.98855032D-01  0.74326593D-01  0.93969040D-02 -0.73016321D-04
 -0.15751436D-02 -0.22515029D-01  0.30412179D-01 -0.85078681D-03 -0.89202661D-02
  0.12056203D-01 -0.12752979D-03  0.89054523D-04  0.18526475D-03 -0.79223114D-02
  0.37819002D-02  0.41404112D-02  0.75102893D-03 -0.59322074D-03 -0.23692582D-01
  0.15535603D-04 -0.14725073D-03  0.13171512D-03  0.80906401D-04 -0.55197519D-04
 -0.35744430D-03
MO    5     MO 0.0        OCC NO =    2.0000000  ORB. ENERGY =    0.000000
 -0.14956337D-01 -0.27876154D-01 -0.47267936D-01 -0.71534995D-01 -0.89234268D-01
 -0.76576277D-01 -0.29324646D-01 -0.16405573D-02 -0.17602103D-01 -0.64884667D-01
 -0.18971896D+00 -0.22862057D+00  0.27539771D+00  0.16768710D+00  0.76181732D-01
  0.50266879D-02  0.21369504D+00  0.20721231D+00  0.13978420D+00  0.17731680D+00
  0.17193765D+00  0.11598812D+00 -0.31376576D-01 -0.30424724D-01 -0.20524339D-01
  0.48198084D-01  0.34933621D-01 -0.80194426D-02  0.78098859D-02  0.28268943D-02
  0.44831395D-02  0.24405679D-03  0.21565778D-04  0.74575617D-04 -0.23340763D-01
  0.22405377D-01  0.93538676D-03 -0.24259345D-03 -0.91794987D-02 -0.18742632D-01
 -0.47263177D-02  0.37082203D-02  0.10180974D-02 -0.97121413D-04 -0.22047390D-02
 -0.14025920D-02  0.18718149D-03 -0.22337013D-03  0.36188640D-04 -0.93384471D-05
 -0.13004565D-03  0.32750698D-03 -0.13005991D-02  0.35914343D-03  0.19923943D-02
  0.27583700D-02 -0.11772915D-02  0.61051307D-02  0.11434272D-02  0.99861157D-04
 -0.12082314D-01 -0.13040989D-03 -0.23899691D-04  0.85035958D-04 -0.47481937D-03
  0.20313104D-04 -0.10802716D-04 -0.20443924D-03  0.51385968D-04 -0.24430516D-03
  0.16288973D-02  0.20527619D-04  0.15792305D-01  0.28482072D-01  0.41996799D-01
  0.62583135D-02 -0.41467031D-02 -0.77427612D-04  0.31659685D-02  0.19134628D-01
  0.13871555D-01  0.17108275D-02  0.78302878D-04  0.14422725D-02  0.25835118D-03
 -0.46968484D-03 -0.10484806D-03 -0.14786531D-02  0.10625826D-02  0.41607050D-03
  0.15975757D-02  0.10751729D-02  0.49400732D-02  0.14158472D-03 -0.19049471D-03
  0.48909992D-04  0.17029086D-03  0.97008947D-04 -0.32310198D-03  0.25559250D-01
  0.46097160D-01  0.67970235D-01  0.24664536D-01 -0.19950644D-02 -0.97121509D-04
  0.32403214D-02 -0.24586705D-01  0.23649501D-01  0.17502041D-02 -0.21946989D-02
  0.44573926D-02  0.26234911D-03  0.48578611D-03 -0.89833066D-04 -0.35681436D-02
  0.17276756D-02  0.18404680D-02 -0.15449862D-02  0.12203496D-02 -0.11321969D-01
  0.15683216D-03 -0.20104490D-03  0.44212733D-04 -0.16643737D-03  0.11355010D-03
  0.29338363D-03
END DATA
 TOTAL ENERGY =    -76.463744943077 THE VIRIAL(-V/T)=   2.00410904
