 75
GAUSSIAN              5 MOL ORBITALS    126 PRIMITIVES        3 NUCLEI   B3LYP
  O    1    (CENTRE  1)   0.00000000  0.00000000  0.00815606  CHARGE =  8.0
  H    2    (CENTRE  2)   0.00000000 -1.44255835 -1.19178791  CHARGE =  1.0
  H    3    (CENTRE  3)   0.00000000  1.34807204 -1.09730160  CHARGE =  1.0
CENTRE ASSIGNMENTS    1  1  1  1  1  1  1  1  1  1  1  1  1  1  1  1  1  1  1  1
CENTRE ASSIGNMENTS    1  1  1  1  1  1  1  1  1  1  1  1  1  1  1  1  1  1  1  1
CENTRE ASSIGNMENTS    1  1  1  1  1  1  1  1  1  1  1  1  1  1  1  1  1  1  1  1
CENTRE ASSIGNMENTS    1  1  1  1  1  1  1  1  1  1  1  1  2  2  2  2  2  2  2  2
CENTRE ASSIGNMENTS    2  2  2  2  2  2  2  2  2  2  2  2  2  2  2  2  2  2  2  3
CENTRE ASSIGNMENTS    3  3  3  3  3  3  3  3  3  3  3  3  3  3  3  3  3  3  3  3
CENTRE ASSIGNMENTS    3  3  3  3  3  3
TYPE ASSIGNMENTS      1  1  1  1  1  1  1  1  1  1  1  1  1  1  1  1  2  2  2  3
TYPE ASSIGNMENTS      3  3  4  4  4  2  3  4  2  3  4  2  3  4  5  6  7  8  9 10
TYPE ASSIGNMENTS      5  6  7  8  9 10  5  6  7  8  9 10 11 12 13 17 14 15 18 19
TYPE ASSIGNMENTS     16 20 11 12 13 17 14 15 18 19 16 20  1  1  1  1  1  1  2  3
TYPE ASSIGNMENTS      4  2  3  4  2  3  4  5  6  7  8  9 10  5  6  7  8  9 10  1
TYPE ASSIGNMENTS      1  1  1  1  1  2  3  4  2  3  4  2  3  4  5  6  7  8  9 10
TYPE ASSIGNMENTS      5  6  7  8  9 10
EXPONENTS  0.1533000D+05 0.2299000D+04 0.5224000D+03 0.1473000D+03 0.4755000D+02
EXPONENTS  0.1676000D+02 0.6207000D+01 0.5224000D+03 0.1473000D+03 0.4755000D+02
EXPONENTS  0.1676000D+02 0.6207000D+01 0.6882000D+00 0.1752000D+01 0.2384000D+00
EXPONENTS  0.7376000D-01 0.3446000D+02 0.7749000D+01 0.2280000D+01 0.3446000D+02
EXPONENTS  0.7749000D+01 0.2280000D+01 0.3446000D+02 0.7749000D+01 0.2280000D+01
EXPONENTS  0.7156000D+00 0.7156000D+00 0.7156000D+00 0.2140000D+00 0.2140000D+00
EXPONENTS  0.2140000D+00 0.5974000D-01 0.5974000D-01 0.5974000D-01 0.2314000D+01
EXPONENTS  0.2314000D+01 0.2314000D+01 0.2314000D+01 0.2314000D+01 0.2314000D+01
EXPONENTS  0.6450000D+00 0.6450000D+00 0.6450000D+00 0.6450000D+00 0.6450000D+00
EXPONENTS  0.6450000D+00 0.2140000D+00 0.2140000D+00 0.2140000D+00 0.2140000D+00
EXPONENTS  0.2140000D+00 0.2140000D+00 0.1428000D+01 0.1428000D+01 0.1428000D+01
EXPONENTS  0.1428000D+01 0.1428000D+01 0.1428000D+01 0.1428000D+01 0.1428000D+01
EXPONENTS  0.1428000D+01 0.1428000D+01 0.5000000D+00 0.5000000D+00 0.5000000D+00
EXPONENTS  0.5000000D+00 0.5000000D+00 0.5000000D+00 0.5000000D+00 0.5000000D+00
EXPONENTS  0.5000000D+00 0.5000000D+00 0.3387000D+02 0.5095000D+01 0.1159000D+01
EXPONENTS  0.3258000D+00 0.1027000D+00 0.2526000D-01 0.1407000D+01 0.1407000D+01
EXPONENTS  0.1407000D+01 0.3880000D+00 0.3880000D+00 0.3880000D+00 0.1020000D+00
EXPONENTS  0.1020000D+00 0.1020000D+00 0.1057000D+01 0.1057000D+01 0.1057000D+01
EXPONENTS  0.1057000D+01 0.1057000D+01 0.1057000D+01 0.2470000D+00 0.2470000D+00
EXPONENTS  0.2470000D+00 0.2470000D+00 0.2470000D+00 0.2470000D+00 0.3387000D+02
EXPONENTS  0.5095000D+01 0.1159000D+01 0.3258000D+00 0.1027000D+00 0.2526000D-01
EXPONENTS  0.1407000D+01 0.1407000D+01 0.1407000D+01 0.3880000D+00 0.3880000D+00
EXPONENTS  0.3880000D+00 0.1020000D+00 0.1020000D+00 0.1020000D+00 0.1057000D+01
EXPONENTS  0.1057000D+01 0.1057000D+01 0.1057000D+01 0.1057000D+01 0.1057000D+01
EXPONENTS  0.2470000D+00 0.2470000D+00 0.2470000D+00 0.2470000D+00 0.2470000D+00
EXPONENTS  0.2470000D+00
MO    1     MO 0.0        OCC NO =    2.0000000  ORB. ENERGY =    0.000000
 -0.80111516D-01 -0.14931469D+00 -0.25318404D+00 -0.38316713D+00 -0.47797079D+00
 -0.41017005D+00 -0.15707334D+00 -0.35874174D-03 -0.38490634D-02 -0.14188372D-01
 -0.41485969D-01 -0.49992610D-01  0.60221396D-01  0.27352616D-01 -0.33200170D-01
 -0.73639413D-02  0.11141460D+00  0.10803469D+00  0.72879561D-01  0.64221283D-01
  0.62273041D-01  0.42009026D-01 -0.14658450D+01 -0.14213766D+01 -0.95885224D+00
  0.25144458D-01  0.77320821D-02 -0.31711593D+00  0.41257244D-02 -0.17493042D-02
 -0.35948244D-01  0.13122797D-03 -0.31168360D-04 -0.66510125D-03 -0.45915283D-01
  0.29883544D-02  0.42926928D-01  0.38574705D-03 -0.47090019D-02 -0.10450487D-01
 -0.67120264D-02 -0.53451142D-02  0.12057141D-01 -0.24515621D-04 -0.11981185D-02
  0.23119808D-02  0.81098486D-03 -0.13121013D-02  0.50111648D-03 -0.14667767D-04
 -0.78036231D-04  0.89931394D-03 -0.66945996D-03 -0.15415916D-04 -0.20145557D-02
  0.13018945D-02  0.74881400D-03  0.19188682D-01  0.70648538D-03 -0.70256625D-03
 -0.13145015D-01 -0.48946265D-04 -0.22993733D-04  0.17043568D-03 -0.74144658D-03
  0.32139204D-04  0.33948155D-03  0.25121432D-03  0.36841995D-04 -0.85078859D-03
  0.19731254D-02  0.64446663D-04  0.30143879D-01  0.54365727D-01  0.80162232D-01
  0.53470511D-01  0.78783076D-02  0.89015484D-04  0.14403410D-02  0.26890667D-01
  0.45823117D-02  0.78111802D-03  0.11492218D-01  0.89043368D-03  0.12207917D-03
  0.18949217D-03 -0.89178303D-03 -0.40088375D-02  0.64392486D-02 -0.24304110D-02
  0.70673170D-03  0.55258245D-03  0.84590742D-02 -0.16735404D-03  0.19190518D-03
 -0.24551143D-04  0.70984988D-04  0.44208626D-04 -0.18354726D-03  0.34798196D-01
  0.62759979D-01  0.92539553D-01  0.64437476D-01  0.77093753D-02  0.73727877D-04
  0.16992090D-02 -0.36016187D-01  0.93465082D-02  0.91692261D-03 -0.13356767D-01
  0.14244087D-02  0.13691968D-03 -0.11967212D-04 -0.10500351D-02 -0.57299062D-02
  0.83336498D-02 -0.26037436D-02 -0.81799302D-03  0.64045950D-03 -0.13731809D-01
  0.72179133D-04  0.74010879D-04 -0.14619001D-03 -0.86274247D-04  0.58602342D-04
  0.79071042D-03
MO    2     MO 0.0        OCC NO =    2.0000000  ORB. ENERGY =    0.000000
  0.43116884D+00  0.80362782D+00  0.13626639D+01  0.20622469D+01  0.25724905D+01
  0.22075795D+01  0.84538569D+00 -0.62811352D-04 -0.67392459D-03 -0.24842129D-02
 -0.72636928D-02 -0.87531031D-02  0.10544040D-01  0.56851148D-01  0.49169395D-02
  0.45765203D-04  0.60210065D+00  0.58383509D+00  0.39385170D+00 -0.48009012D+00
 -0.46552593D+00 -0.31404104D+00 -0.10705203D+00 -0.10380446D+00 -0.70025876D-01
  0.13588429D+00 -0.98384999D-01 -0.24412055D-01  0.22296012D-01 -0.93685094D-02
 -0.34788674D-02  0.70917498D-03 -0.86675138D-04 -0.67649818D-04 -0.61485222D-02
  0.20077816D-02  0.41407407D-02  0.20846329D-02 -0.25448128D-01  0.43348238D-01
 -0.94948369D-03 -0.87314974D-04  0.10367987D-02 -0.13248597D-03 -0.64748061D-02
  0.54725963D-02 -0.25844798D-04 -0.49231443D-04  0.75076241D-04 -0.79266739D-04
 -0.42171909D-03 -0.31293927D-03 -0.36178586D-02 -0.21180095D-02  0.44938257D-03
  0.70356264D-02  0.42062090D-02  0.31290952D-02  0.38179493D-02  0.21478195D-02
 -0.44772429D-02 -0.26451271D-03 -0.12426146D-03 -0.87645971D-05 -0.12124507D-03
  0.17368491D-03  0.33075443D-03 -0.12036164D-03  0.19909948D-03 -0.30446064D-03
  0.48409685D-03  0.34827910D-03  0.14975988D-01  0.27009811D-01  0.39825951D-01
  0.26198619D-01  0.33912081D-02 -0.30894035D-04  0.77838116D-02  0.82688745D-02
  0.96516745D-02  0.42212750D-02  0.29047803D-02  0.37105166D-02  0.65973353D-03
 -0.58440909D-04  0.66273427D-05 -0.19930172D-02  0.80148707D-03  0.11915302D-02
  0.38192805D-02  0.29862356D-02  0.55606351D-02 -0.81271563D-04  0.28424882D-05
  0.78429075D-04  0.38361316D-03  0.23890982D-03  0.25413573D-03 -0.92665362D-02
 -0.16712580D-01 -0.24642689D-01 -0.20654821D-01 -0.28616352D-02  0.27327888D-04
  0.91827717D-02  0.49096371D-02 -0.10159351D-01  0.49551826D-02  0.26736276D-02
 -0.47045108D-02  0.73993380D-03 -0.14223838D-04 -0.20300159D-03  0.32686021D-02
 -0.12862712D-02 -0.19823309D-02 -0.44205528D-02  0.34611359D-02  0.99891555D-02
  0.29194728D-04  0.53205044D-04 -0.82399772D-04 -0.46623853D-03  0.31669554D-03
  0.22496298D-03
MO    3     MO 0.0        OCC NO =    2.0000000  ORB. ENERGY =    0.000000
 -0.25235876D+00 -0.47035524D+00 -0.79755340D+00 -0.12070123D+01 -0.15056527D+01
 -0.12920740D+01 -0.49479570D+00 -0.45177502D-03 -0.48472495D-02 -0.17867874D-01
 -0.52244616D-01 -0.62957303D-01  0.75838743D-01  0.16161023D-01  0.33381434D-01
  0.30999360D-02  0.11127534D+01  0.10789965D+01  0.72788468D+00 -0.85410520D+00
 -0.82819474D+00 -0.55869528D+00  0.28081962D+00  0.27230057D+00  0.18369235D+00
  0.25113030D+00 -0.17748162D+00  0.56689740D-01  0.41205676D-01 -0.17270838D-01
  0.64846046D-02  0.13106395D-02 -0.18439966D-03  0.12032802D-03  0.44213522D-02
  0.20955761D-02 -0.65169283D-02  0.38526490D-02 -0.47031161D-01  0.82294039D-01
 -0.92548255D-03  0.26923736D-02 -0.17668910D-02 -0.24484979D-03 -0.11966210D-01
  0.11215016D-01 -0.34894879D-03  0.37865875D-03 -0.29709965D-04 -0.14649434D-03
 -0.77938693D-03 -0.51044142D-03 -0.66862320D-02 -0.36188874D-02  0.78703988D-03
  0.13002672D-01  0.89693236D-02 -0.20918710D-02  0.70560234D-02  0.18873387D-02
 -0.26924862D-03 -0.48885087D-03 -0.22964993D-03 -0.57452915D-04  0.19801407D-03
  0.32099033D-03  0.49602190D-03  0.37277399D-03  0.36795946D-03 -0.32366315D-03
 -0.96681619D-03  0.64366111D-03  0.20564908D-01  0.37089658D-01  0.54688680D-01
  0.31150977D-01  0.25628291D-02 -0.12244423D-03  0.14385407D-01  0.98574363D-02
  0.18626119D-01  0.78014170D-02  0.18485591D-02  0.67857479D-02  0.12192658D-02
 -0.28674422D-03  0.28471101D-03 -0.38263971D-02  0.51173372D-03  0.33146633D-02
  0.70584835D-02  0.55189178D-02  0.12115346D-01 -0.65041144D-04 -0.10015448D-03
  0.16519562D-03  0.70896264D-03  0.44153370D-03  0.48574972D-03 -0.22448533D-01
 -0.40486855D-01 -0.59697843D-01 -0.48438106D-01 -0.66685958D-02  0.37112632D-04
  0.16970852D-01  0.12043875D-01 -0.14187177D-01  0.91577655D-02  0.56076414D-02
 -0.58778763D-02  0.13674855D-02 -0.19425160D-03  0.13878378D-03  0.38880324D-02
 -0.20144300D-02 -0.18736024D-02 -0.81697061D-02  0.63965899D-02  0.10935761D-01
 -0.13080797D-04  0.11843608D-03 -0.10535529D-03 -0.86166413D-03  0.58529094D-03
 -0.23180657D-05
MO    4     MO 0.0        OCC NO =    2.0000000  ORB. ENERGY =    0.000000
 -0.18510076D-01 -0.34499737D-01 -0.58499153D-01 -0.88532247D-01 -0.11043700D+00
 -0.94771376D-01 -0.36292402D-01 -0.74497215D-03 -0.79930623D-02 -0.29463933D-01
 -0.86150811D-01 -0.10381592D+00  0.12505727D+00  0.75807260D-01  0.42233648D-01
  0.39265221D-02  0.92228323D+00  0.89430450D+00  0.60329253D+00  0.10707121D+01
  0.10382306D+01  0.70038420D+00  0.33693889D+00  0.32671739D+00  0.22040162D+00
  0.20814428D+00  0.22099173D+00  0.75100895D-01  0.34152493D-01  0.21284457D-01
  0.12622258D-01  0.10862971D-02  0.22324963D-03  0.22444327D-03 -0.89856145D-03
  0.11214523D-01 -0.10315961D-01  0.31931904D-02 -0.38980829D-01 -0.10212591D+00
 -0.35486797D-03  0.27611408D-02 -0.24062728D-02 -0.20293880D-03 -0.99179516D-02
 -0.12545363D-01  0.82310490D-04  0.93861136D-04 -0.17617163D-03 -0.12141888D-03
 -0.64597913D-03  0.66071340D-03 -0.55417484D-02  0.46267226D-02  0.11899574D-02
  0.10777003D-01 -0.10639954D-01 -0.21359031D-02  0.58482426D-02 -0.32402142D-02
 -0.14339692D-02 -0.40517418D-03 -0.19034071D-03  0.44185880D-04 -0.92357930D-04
  0.26604636D-03 -0.50952479D-03 -0.31475109D-03  0.30497577D-03  0.37696715D-03
  0.59182488D-03  0.53348552D-03 -0.25212000D-01 -0.45470880D-01 -0.67046785D-01
 -0.55331465D-01 -0.98304510D-02  0.30270292D-04  0.11923055D-01 -0.10310620D-01
 -0.12052347D-01  0.64660471D-02 -0.71319063D-02 -0.67841660D-02  0.10105639D-02
 -0.10931212D-03  0.29591665D-06  0.47377794D-02 -0.27303420D-02 -0.20074374D-02
  0.58502816D-02  0.45742436D-02 -0.13344020D-01  0.21543228D-03 -0.81827334D-04
 -0.13360495D-03  0.58760937D-03  0.36595630D-03 -0.60430521D-03  0.30346369D-01
  0.54730927D-01  0.80700720D-01  0.46008132D-01  0.26155062D-02 -0.14930305D-03
  0.14065948D-01 -0.18851348D-01  0.31950156D-01  0.75902291D-02 -0.31651383D-02
  0.10162720D-01  0.11334127D-02  0.51853255D-03  0.30576071D-03 -0.57737704D-02
  0.96241323D-03  0.48113572D-02 -0.67712960D-02  0.53016845D-02 -0.18275955D-01
  0.71968251D-04 -0.26783454D-03  0.19586629D-03 -0.71417292D-03  0.48510659D-03
 -0.18626979D-03
MO    5     MO 0.0        OCC NO =    2.0000000  ORB. ENERGY =    0.000000
 -0.54630064D-01 -0.10182146D+00 -0.17265259D+00 -0.26129134D+00 -0.32594035D+00
 -0.27970531D+00 -0.10711227D+00 -0.14670166D-02 -0.15740125D-01 -0.58021065D-01
 -0.16965019D+00 -0.20443673D+00  0.24626570D+00  0.14487174D+00  0.87214976D-01
  0.72656980D-02 -0.86405115D+00 -0.83783896D+00 -0.56520121D+00 -0.28333517D+00
 -0.27473981D+00 -0.18533785D+00  0.45768523D+00  0.44380072D+00  0.29938534D+00
 -0.19500225D+00 -0.60242410D-01  0.95267671D-01 -0.31996137D-01 -0.62769089D-02
  0.14764491D-01 -0.10177094D-02 -0.63597783D-04  0.26163000D-03 -0.54701801D-02
  0.16453492D-01 -0.10983312D-01 -0.29915754D-02  0.36519616D-01  0.25831370D-01
 -0.30977624D-02  0.56644860D-02 -0.25667236D-02  0.19012544D-03  0.92917416D-02
  0.51638281D-02 -0.27496751D-03  0.38434166D-03 -0.10937415D-03  0.11375260D-03
  0.60519262D-03 -0.54226872D-04  0.51918477D-02 -0.11998748D-02  0.23371090D-02
 -0.10096553D-01  0.32215510D-02 -0.31909527D-03 -0.54789901D-02  0.37807340D-03
 -0.66922317D-02  0.37959187D-03  0.17832278D-03 -0.10956734D-04 -0.23666474D-04
 -0.24924845D-03  0.36918482D-03  0.92627633D-04 -0.28571989D-03 -0.33631461D-03
 -0.21628210D-04 -0.49980175D-03  0.13895691D-01  0.25061451D-01  0.36953095D-01
  0.62075901D-02 -0.38134967D-02 -0.13542735D-03 -0.11170244D-01  0.10918673D-01
  0.18439205D-01 -0.60577870D-02 -0.17259119D-02  0.41979616D-02 -0.94675785D-03
 -0.50224743D-03  0.25660374D-03 -0.17764018D-02 -0.86651467D-03  0.26429165D-02
 -0.54809004D-02 -0.42854302D-02  0.63248036D-02  0.67976858D-04 -0.18959840D-03
  0.12162154D-03 -0.55050828D-03 -0.34285017D-03  0.13395567D-03  0.15113740D-02
  0.27258253D-02  0.40192278D-02 -0.19355504D-01 -0.67962654D-02 -0.83020534D-04
 -0.13177837D-01 -0.58342068D-02  0.99584946D-02 -0.71109893D-02  0.39840492D-02
  0.18331104D-03 -0.10618501D-02  0.29186031D-03  0.22824283D-03  0.38308149D-03
 -0.13887150D-02  0.10056335D-02  0.63437628D-02 -0.49669412D-02 -0.23406891D-03
  0.89623610D-04 -0.86740771D-04 -0.28828393D-05  0.66908072D-03 -0.45447742D-03
  0.56911102D-04
END DATA
 TOTAL ENERGY =    -76.463251042390 THE VIRIAL(-V/T)=   2.00549209
