 76
GAUSSIAN              5 MOL ORBITALS    126 PRIMITIVES        3 NUCLEI   B3LYP
  O    1    (CENTRE  1)   0.00000000  0.00000000  0.00815606  CHARGE =  8.0
  H    2    (CENTRE  2)   0.00000000 -1.44255835 -1.09730160  CHARGE =  1.0
  H    3    (CENTRE  3)   0.09448631  1.53704465 -1.09730160  CHARGE =  1.0
CENTRE ASSIGNMENTS    1  1  1  1  1  1  1  1  1  1  1  1  1  1  1  1  1  1  1  1
CENTRE ASSIGNMENTS    1  1  1  1  1  1  1  1  1  1  1  1  1  1  1  1  1  1  1  1
CENTRE ASSIGNMENTS    1  1  1  1  1  1  1  1  1  1  1  1  1  1  1  1  1  1  1  1
CENTRE ASSIGNMENTS    1  1  1  1  1  1  1  1  1  1  1  1  2  2  2  2  2  2  2  2
CENTRE ASSIGNMENTS    2  2  2  2  2  2  2  2  2  2  2  2  2  2  2  2  2  2  2  3
CENTRE ASSIGNMENTS    3  3  3  3  3  3  3  3  3  3  3  3  3  3  3  3  3  3  3  3
CENTRE ASSIGNMENTS    3  3  3  3  3  3
TYPE ASSIGNMENTS      1  1  1  1  1  1  1  1  1  1  1  1  1  1  1  1  2  2  2  3
TYPE ASSIGNMENTS      3  3  4  4  4  2  3  4  2  3  4  2  3  4  5  6  7  8  9 10
TYPE ASSIGNMENTS      5  6  7  8  9 10  5  6  7  8  9 10 11 12 13 17 14 15 18 19
TYPE ASSIGNMENTS     16 20 11 12 13 17 14 15 18 19 16 20  1  1  1  1  1  1  2  3
TYPE ASSIGNMENTS      4  2  3  4  2  3  4  5  6  7  8  9 10  5  6  7  8  9 10  1
TYPE ASSIGNMENTS      1  1  1  1  1  2  3  4  2  3  4  2  3  4  5  6  7  8  9 10
TYPE ASSIGNMENTS      5  6  7  8  9 10
EXPONENTS  0.1533000D+05 0.2299000D+04 0.5224000D+03 0.1473000D+03 0.4755000D+02
EXPONENTS  0.1676000D+02 0.6207000D+01 0.5224000D+03 0.1473000D+03 0.4755000D+02
EXPONENTS  0.1676000D+02 0.6207000D+01 0.6882000D+00 0.1752000D+01 0.2384000D+00
EXPONENTS  0.7376000D-01 0.3446000D+02 0.7749000D+01 0.2280000D+01 0.3446000D+02
EXPONENTS  0.7749000D+01 0.2280000D+01 0.3446000D+02 0.7749000D+01 0.2280000D+01
EXPONENTS  0.7156000D+00 0.7156000D+00 0.7156000D+00 0.2140000D+00 0.2140000D+00
EXPONENTS  0.2140000D+00 0.5974000D-01 0.5974000D-01 0.5974000D-01 0.2314000D+01
EXPONENTS  0.2314000D+01 0.2314000D+01 0.2314000D+01 0.2314000D+01 0.2314000D+01
EXPONENTS  0.6450000D+00 0.6450000D+00 0.6450000D+00 0.6450000D+00 0.6450000D+00
EXPONENTS  0.6450000D+00 0.2140000D+00 0.2140000D+00 0.2140000D+00 0.2140000D+00
EXPONENTS  0.2140000D+00 0.2140000D+00 0.1428000D+01 0.1428000D+01 0.1428000D+01
EXPONENTS  0.1428000D+01 0.1428000D+01 0.1428000D+01 0.1428000D+01 0.1428000D+01
EXPONENTS  0.1428000D+01 0.1428000D+01 0.5000000D+00 0.5000000D+00 0.5000000D+00
EXPONENTS  0.5000000D+00 0.5000000D+00 0.5000000D+00 0.5000000D+00 0.5000000D+00
EXPONENTS  0.5000000D+00 0.5000000D+00 0.3387000D+02 0.5095000D+01 0.1159000D+01
EXPONENTS  0.3258000D+00 0.1027000D+00 0.2526000D-01 0.1407000D+01 0.1407000D+01
EXPONENTS  0.1407000D+01 0.3880000D+00 0.3880000D+00 0.3880000D+00 0.1020000D+00
EXPONENTS  0.1020000D+00 0.1020000D+00 0.1057000D+01 0.1057000D+01 0.1057000D+01
EXPONENTS  0.1057000D+01 0.1057000D+01 0.1057000D+01 0.2470000D+00 0.2470000D+00
EXPONENTS  0.2470000D+00 0.2470000D+00 0.2470000D+00 0.2470000D+00 0.3387000D+02
EXPONENTS  0.5095000D+01 0.1159000D+01 0.3258000D+00 0.1027000D+00 0.2526000D-01
EXPONENTS  0.1407000D+01 0.1407000D+01 0.1407000D+01 0.3880000D+00 0.3880000D+00
EXPONENTS  0.3880000D+00 0.1020000D+00 0.1020000D+00 0.1020000D+00 0.1057000D+01
EXPONENTS  0.1057000D+01 0.1057000D+01 0.1057000D+01 0.1057000D+01 0.1057000D+01
EXPONENTS  0.2470000D+00 0.2470000D+00 0.2470000D+00 0.2470000D+00 0.2470000D+00
EXPONENTS  0.2470000D+00
MO    1     MO 0.0        OCC NO =    2.0000000  ORB. ENERGY =    0.000000
  0.23055474D-02  0.42971612D-02  0.72864406D-02  0.11027253D-01  0.13755629D-01
  0.11804376D-01  0.45204490D-02 -0.39076211D-05 -0.41926210D-04 -0.15454791D-03
 -0.45188901D-03 -0.54454823D-03  0.65596605D-03  0.11165451D-02  0.48145167D-01
  0.87662294D-02  0.11819971D-02  0.11461396D-02  0.77317899D-03  0.57684345D+00
  0.55934411D+00  0.37733023D+00  0.14600201D+01  0.14157284D+01  0.95504203D+00
  0.41000975D-03  0.11826601D+00  0.31714255D+00  0.34274124D-03  0.10415782D-01
  0.38887450D-01  0.23848626D-04  0.10309382D-03  0.77858551D-03  0.39633903D-01
 -0.26856954D-02 -0.36948208D-01 -0.38764395D-03  0.28292889D-02 -0.56976034D-01
  0.52802685D-02  0.58196209D-02 -0.11099889D-01  0.31062916D-03  0.69854880D-03
 -0.64397666D-02 -0.71338852D-03  0.13070003D-02 -0.59361177D-03  0.10181062D-03
 -0.18964559D-04  0.73348238D-03  0.25884866D-03  0.24192453D-02  0.92656004D-03
  0.56699433D-03 -0.57708551D-02 -0.16792982D-01 -0.13435403D-02 -0.14868809D-02
  0.14013302D-01  0.16302222D-02 -0.97858271D-05  0.17616972D-03  0.60005402D-03
  0.11795432D-03 -0.28835720D-03 -0.26055106D-03 -0.88596838D-04 -0.24015198D-03
 -0.15396110D-02 -0.98855342D-04 -0.42103250D-01 -0.75934945D-01 -0.11196603D+00
 -0.82309962D-01 -0.12131105D-01 -0.61341715D-04  0.15657452D-04 -0.34418249D-01
 -0.12191950D-01  0.18497794D-04 -0.15488194D-01 -0.43636966D-02  0.79489609D-05
 -0.16936690D-03  0.90842443D-03  0.66531975D-02 -0.85935927D-02  0.19403952D-02
  0.28812602D-04  0.82353732D-04 -0.16796764D-01  0.14556280D-03 -0.24786772D-03
  0.10230492D-03 -0.68626474D-06  0.29292732D-04  0.17114898D-03 -0.11034690D-01
 -0.19901518D-01 -0.29344777D-01 -0.24450362D-01 -0.60105160D-02 -0.17913116D-03
  0.59505662D-03  0.14754796D-01  0.10154180D-01  0.40497379D-03  0.88886898D-02
  0.42862123D-02  0.24187474D-04  0.49915765D-03  0.95364795D-03  0.70308946D-03
 -0.49793852D-02  0.42762957D-02 -0.58957403D-03 -0.13828971D-03 -0.13364028D-02
  0.21372354D-03 -0.42304408D-03  0.20932054D-03 -0.50545681D-04  0.23990727D-05
 -0.45138016D-03
MO    2     MO 0.0        OCC NO =    2.0000000  ORB. ENERGY =    0.000000
  0.32643546D-02  0.60842202D-02  0.10316650D-01  0.15613153D-01  0.19476178D-01
  0.16713458D-01  0.64003666D-02 -0.17252554D-03 -0.18510858D-02 -0.68234510D-02
 -0.19951370D-01 -0.24042371D-01  0.28961584D-01  0.17074273D-01 -0.72757422D-02
 -0.28222066D-02  0.22200911D-01  0.21527416D-01  0.14522268D-01  0.13331447D+01
  0.12927019D+01  0.87204905D+00 -0.58043924D+00 -0.56283081D+00 -0.37968234D+00
  0.43143728D-02  0.28101844D+00 -0.12962918D+00 -0.50533125D-04  0.28349621D-01
 -0.16956783D-01 -0.30053946D-04  0.30348489D-03 -0.34068316D-03 -0.17611795D-01
  0.35454298D-02  0.14066365D-01  0.64316197D-02 -0.47452013D-02 -0.12126577D+00
 -0.33898393D-02 -0.10091473D-02  0.43989866D-02  0.92466333D-03 -0.78507031D-03
 -0.18913017D-01  0.88087471D-04 -0.37478433D-03  0.28669686D-03 -0.47363710D-04
  0.27229448D-04  0.33787487D-03 -0.55672548D-03  0.66352397D-02 -0.62840841D-05
  0.13740466D-02 -0.15328192D-01  0.79099188D-02  0.29612981D-03 -0.45775273D-02
 -0.78910666D-02 -0.19287012D-02 -0.35164269D-04  0.70205937D-04 -0.15693161D-03
  0.47431752D-04 -0.10291218D-02  0.33442563D-03  0.58061056D-04  0.81850399D-03
  0.13636920D-03 -0.15272984D-03 -0.21227892D-01 -0.38285378D-01 -0.56451767D-01
 -0.39322490D-01 -0.39009346D-02  0.15250130D-03  0.15349848D-03 -0.60893547D-02
 -0.23204865D-01  0.33086984D-04 -0.12254898D-02 -0.98301421D-02 -0.14844986D-04
  0.45121702D-03 -0.54975016D-03  0.45570707D-02 -0.13869463D-04 -0.45432013D-02
  0.11329387D-04  0.58990534D-04 -0.14675351D-01 -0.34782448D-04  0.34882725D-03
 -0.31404481D-03  0.18014789D-04 -0.17259248D-04 -0.62162473D-03  0.46144783D-01
  0.83224016D-01  0.12271376D+00  0.82446807D-01  0.11258938D-01 -0.76746304D-04
 -0.23874438D-02 -0.28274885D-01  0.22557894D-01 -0.10379296D-02 -0.11278704D-01
  0.90521829D-02 -0.36787742D-04  0.11663623D-03 -0.19658672D-03 -0.71016179D-02
  0.60252917D-02  0.10763262D-02  0.19377934D-02 -0.15070906D-02 -0.19626139D-01
 -0.22101145D-03  0.78269809D-04  0.14274164D-03  0.78037349D-04 -0.69670270D-04
 -0.71777070D-03
MO    3     MO 0.0        OCC NO =    2.0000000  ORB. ENERGY =    0.000000
  0.49250309D+00  0.91794478D+00  0.15565044D+01  0.23556038D+01  0.29384301D+01
  0.25216102D+01  0.96564275D+00  0.19711142D-03  0.21148762D-02  0.77958320D-02
  0.22794555D-01  0.27468548D-01 -0.33088776D-01  0.38038197D-01 -0.70309120D-02
 -0.42402066D-03 -0.39803400D+00 -0.38595909D+00 -0.26036572D+00 -0.17711451D-01
 -0.17174150D-01 -0.11585580D-01 -0.25424455D-01 -0.24653169D-01 -0.16630882D-01
 -0.90014549D-01 -0.45534172D-02 -0.38546756D-02 -0.14900289D-01 -0.54748649D-03
 -0.96207938D-03 -0.48467185D-03 -0.25595854D-05 -0.31286125D-04 -0.10044316D-02
  0.22631037D-03  0.77812122D-03  0.45850502D-03  0.15692388D-01  0.31001003D-02
  0.59160210D-03 -0.83189968D-03  0.24029758D-03 -0.23022689D-03  0.42381149D-02
  0.86424875D-03  0.44373231D-04 -0.61909250D-04  0.17536018D-04 -0.45359938D-04
  0.30032763D-03  0.55322978D-04  0.23375953D-02  0.43648119D-05  0.93058347D-04
 -0.50668146D-02  0.31070605D-03  0.92513831D-03 -0.19459713D-02 -0.32380048D-03
 -0.12043134D-02 -0.26794412D-03  0.11628717D-03 -0.43522232D-05 -0.13105665D-03
 -0.20212454D-03  0.95995374D-05 -0.26456985D-03 -0.14673697D-03  0.34571323D-05
  0.65773979D-03  0.18403427D-03 -0.86529036D-03 -0.15605868D-02 -0.23010843D-02
 -0.53746863D-03  0.11556871D-03 -0.46349295D-06 -0.55412167D-02 -0.18012921D-02
 -0.14737041D-02 -0.30223045D-02 -0.59962738D-03 -0.61288629D-03 -0.46721733D-03
 -0.28439541D-04 -0.65207583D-04  0.10887511D-02 -0.94196199D-03 -0.14678912D-03
 -0.27677944D-02 -0.20658414D-02 -0.31089315D-02  0.60722892D-05 -0.45938454D-05
 -0.14784438D-05 -0.28873239D-03 -0.18684020D-03 -0.42532540D-04 -0.23184632D-02
 -0.41814439D-02 -0.61655367D-02 -0.21443240D-02  0.13252182D-03  0.17910829D-04
 -0.48957735D-02  0.20943895D-02 -0.18070722D-02 -0.27306579D-02  0.38925963D-03
 -0.53208791D-03 -0.43893324D-03 -0.26555906D-04 -0.31460977D-04  0.10145987D-02
 -0.83972274D-03 -0.17487599D-03  0.23963354D-02 -0.16600056D-02  0.25579112D-02
  0.10920158D-04  0.67893022D-05 -0.17709460D-04  0.26247759D-03 -0.14666991D-03
  0.38152997D-04
MO    4     MO 0.0        OCC NO =    2.0000000  ORB. ENERGY =    0.000000
  0.12744523D+00  0.23753696D+00  0.40277729D+00  0.60956060D+00  0.76037880D+00
  0.65251814D+00  0.24987978D+00  0.11114661D-02  0.11925301D-01  0.43958907D-01
  0.12853326D+00  0.15488883D+00 -0.18658001D+00 -0.99686737D-01 -0.61708785D-01
 -0.49445812D-02  0.13743455D+01  0.13326528D+01  0.89899971D+00  0.53269878D-01
  0.51653863D-01  0.34845391D-01 -0.20016764D+00 -0.19409528D+00 -0.13093553D+00
  0.31018669D+00  0.96167445D-02 -0.40106260D-01  0.51389594D-01  0.10114853D-03
 -0.71871386D-02  0.16671653D-02 -0.33571909D-04 -0.11523236D-03  0.86159601D-02
 -0.13110054D-01  0.44940944D-02 -0.27864740D-02 -0.53806208D-01 -0.80990017D-02
  0.34774591D-02 -0.45221398D-02  0.10446807D-02 -0.14127282D-03 -0.14121059D-01
 -0.25963050D-03  0.19079628D-03 -0.24336148D-03  0.52565204D-04  0.91431461D-04
 -0.99892521D-03  0.12947247D-03 -0.79810613D-02 -0.20751048D-03 -0.13207259D-02
  0.17114211D-01  0.10540260D-02 -0.20636228D-02  0.68289725D-02 -0.43149460D-03
  0.60258006D-02  0.12720332D-02 -0.34516386D-03 -0.99738570D-05  0.35930915D-04
  0.58051476D-03  0.11533153D-03 -0.24986220D-03  0.45497683D-03 -0.85409962D-04
  0.14206946D-03 -0.38532109D-03 -0.10275884D-01 -0.18532979D-01 -0.27326867D-01
 -0.37950326D-02  0.30959034D-02  0.87561464D-04  0.19142220D-01 -0.10830210D-01
 -0.12123638D-01  0.10468493D-01  0.40927426D-03 -0.20952555D-02  0.16180118D-02
  0.28990548D-03 -0.75630126D-04  0.14353244D-02 -0.34689742D-03 -0.10884270D-02
  0.95763302D-02  0.71300055D-02 -0.51713079D-02 -0.74220296D-04  0.10830950D-03
 -0.34089203D-04  0.10034438D-02  0.63409951D-03  0.80388658D-05 -0.46805390D-02
 -0.84415448D-02 -0.12447053D-01  0.53580946D-02  0.41894802D-02  0.73795484D-04
  0.17751471D-01  0.62155213D-02 -0.74911061D-02  0.94264998D-02 -0.21419334D-02
 -0.68435582D-03  0.14947804D-02 -0.37043919D-03 -0.54167656D-04 -0.28673921D-03
  0.92067274D-03 -0.63393353D-03 -0.89489948D-02  0.63708840D-02  0.13294956D-02
 -0.13895988D-03  0.16509316D-03 -0.26133287D-04 -0.88133744D-03  0.50172002D-03
 -0.10352375D-03
MO    5     MO 0.0        OCC NO =    2.0000000  ORB. ENERGY =    0.000000
  0.20507452D-01  0.38222519D-01  0.64811652D-01  0.98085544D-01  0.12235398D+00
  0.10499792D+00  0.40208626D-01 -0.13211229D-02 -0.14174782D-01 -0.52250915D-01
 -0.15277861D+00 -0.18410565D+00  0.22177477D+00  0.13882162D+00  0.72197508D-01
  0.55505819D-02  0.10781258D+01  0.10454194D+01  0.70523375D+00 -0.13509660D+00
 -0.13099826D+00 -0.88370651D-01  0.28068334D+00  0.27216842D+00  0.18360321D+00
  0.24384740D+00 -0.28042564D-01  0.58282873D-01  0.40415063D-01 -0.30873526D-02
  0.10941124D-01  0.13220238D-02 -0.64785244D-04  0.23609180D-03 -0.87352431D-02
  0.16809957D-01 -0.80747137D-02 -0.27679425D-03 -0.42886193D-01  0.12094307D-01
 -0.31742600D-02  0.50435595D-02 -0.18692995D-02  0.76030336D-03 -0.11551360D-01
  0.11351204D-02 -0.91568085D-04  0.20583581D-03 -0.11426772D-03  0.12163496D-03
 -0.81400958D-03 -0.74568571D-04 -0.64462049D-02 -0.75145521D-03  0.22454828D-02
  0.14077664D-01  0.23450860D-02  0.60161830D-03  0.52609502D-02 -0.90720383D-04
 -0.73380668D-02  0.20509668D-03 -0.28868032D-03 -0.33787568D-04 -0.80255545D-04
  0.46363300D-03  0.21195441D-04  0.30858035D-04  0.40240796D-03  0.80167263D-04
  0.20990860D-03 -0.33586929D-03  0.13311102D-01  0.24007121D-01  0.35398486D-01
  0.62051747D-02 -0.34935173D-02 -0.10080704D-03  0.14969427D-01  0.12670733D-01
  0.15820926D-01  0.81587613D-02 -0.87198002D-03  0.30882134D-02  0.12666767D-02
 -0.45558988D-03  0.15502308D-03 -0.14576993D-02 -0.21719830D-03  0.16748976D-02
  0.74383866D-02  0.56043927D-02  0.57501326D-02  0.98539237D-04 -0.18030488D-03
  0.81765648D-04  0.77845058D-03  0.51192729D-03 -0.12682301D-04  0.72891499D-02
  0.13146282D-01  0.19384185D-01 -0.31634239D-02 -0.44867411D-02 -0.81535626D-04
  0.13069864D-01 -0.98904583D-02  0.10727722D-01  0.75633254D-02  0.13591686D-02
  0.16988524D-02  0.12109054D-02  0.33609913D-03  0.14432400D-03 -0.75422789D-03
 -0.40349356D-03  0.11577214D-02 -0.70592000D-02  0.48075236D-02 -0.26879544D-02
  0.53258063D-04 -0.12256863D-03  0.69310566D-04 -0.73748758D-03  0.41173410D-03
  0.17229944D-04
END DATA
 TOTAL ENERGY =    -76.464583881771 THE VIRIAL(-V/T)=   2.00693803
