 76
GAUSSIAN              5 MOL ORBITALS    126 PRIMITIVES        3 NUCLEI   B3LYP
  O    1    (CENTRE  1)   0.00000000  0.00000000  0.00815606  CHARGE =  8.0
  H    2    (CENTRE  2)   0.00000000 -1.44255835 -1.09730160  CHARGE =  1.0
  H    3    (CENTRE  3)  -0.09448631  1.53704465 -1.09730160  CHARGE =  1.0
CENTRE ASSIGNMENTS    1  1  1  1  1  1  1  1  1  1  1  1  1  1  1  1  1  1  1  1
CENTRE ASSIGNMENTS    1  1  1  1  1  1  1  1  1  1  1  1  1  1  1  1  1  1  1  1
CENTRE ASSIGNMENTS    1  1  1  1  1  1  1  1  1  1  1  1  1  1  1  1  1  1  1  1
CENTRE ASSIGNMENTS    1  1  1  1  1  1  1  1  1  1  1  1  2  2  2  2  2  2  2  2
CENTRE ASSIGNMENTS    2  2  2  2  2  2  2  2  2  2  2  2  2  2  2  2  2  2  2  3
CENTRE ASSIGNMENTS    3  3  3  3  3  3  3  3  3  3  3  3  3  3  3  3  3  3  3  3
CENTRE ASSIGNMENTS    3  3  3  3  3  3
TYPE ASSIGNMENTS      1  1  1  1  1  1  1  1  1  1  1  1  1  1  1  1  2  2  2  3
TYPE ASSIGNMENTS      3  3  4  4  4  2  3  4  2  3  4  2  3  4  5  6  7  8  9 10
TYPE ASSIGNMENTS      5  6  7  8  9 10  5  6  7  8  9 10 11 12 13 17 14 15 18 19
TYPE ASSIGNMENTS     16 20 11 12 13 17 14 15 18 19 16 20  1  1  1  1  1  1  2  3
TYPE ASSIGNMENTS      4  2  3  4  2  3  4  5  6  7  8  9 10  5  6  7  8  9 10  1
TYPE ASSIGNMENTS      1  1  1  1  1  2  3  4  2  3  4  2  3  4  5  6  7  8  9 10
TYPE ASSIGNMENTS      5  6  7  8  9 10
EXPONENTS  0.1533000D+05 0.2299000D+04 0.5224000D+03 0.1473000D+03 0.4755000D+02
EXPONENTS  0.1676000D+02 0.6207000D+01 0.5224000D+03 0.1473000D+03 0.4755000D+02
EXPONENTS  0.1676000D+02 0.6207000D+01 0.6882000D+00 0.1752000D+01 0.2384000D+00
EXPONENTS  0.7376000D-01 0.3446000D+02 0.7749000D+01 0.2280000D+01 0.3446000D+02
EXPONENTS  0.7749000D+01 0.2280000D+01 0.3446000D+02 0.7749000D+01 0.2280000D+01
EXPONENTS  0.7156000D+00 0.7156000D+00 0.7156000D+00 0.2140000D+00 0.2140000D+00
EXPONENTS  0.2140000D+00 0.5974000D-01 0.5974000D-01 0.5974000D-01 0.2314000D+01
EXPONENTS  0.2314000D+01 0.2314000D+01 0.2314000D+01 0.2314000D+01 0.2314000D+01
EXPONENTS  0.6450000D+00 0.6450000D+00 0.6450000D+00 0.6450000D+00 0.6450000D+00
EXPONENTS  0.6450000D+00 0.2140000D+00 0.2140000D+00 0.2140000D+00 0.2140000D+00
EXPONENTS  0.2140000D+00 0.2140000D+00 0.1428000D+01 0.1428000D+01 0.1428000D+01
EXPONENTS  0.1428000D+01 0.1428000D+01 0.1428000D+01 0.1428000D+01 0.1428000D+01
EXPONENTS  0.1428000D+01 0.1428000D+01 0.5000000D+00 0.5000000D+00 0.5000000D+00
EXPONENTS  0.5000000D+00 0.5000000D+00 0.5000000D+00 0.5000000D+00 0.5000000D+00
EXPONENTS  0.5000000D+00 0.5000000D+00 0.3387000D+02 0.5095000D+01 0.1159000D+01
EXPONENTS  0.3258000D+00 0.1027000D+00 0.2526000D-01 0.1407000D+01 0.1407000D+01
EXPONENTS  0.1407000D+01 0.3880000D+00 0.3880000D+00 0.3880000D+00 0.1020000D+00
EXPONENTS  0.1020000D+00 0.1020000D+00 0.1057000D+01 0.1057000D+01 0.1057000D+01
EXPONENTS  0.1057000D+01 0.1057000D+01 0.1057000D+01 0.2470000D+00 0.2470000D+00
EXPONENTS  0.2470000D+00 0.2470000D+00 0.2470000D+00 0.2470000D+00 0.3387000D+02
EXPONENTS  0.5095000D+01 0.1159000D+01 0.3258000D+00 0.1027000D+00 0.2526000D-01
EXPONENTS  0.1407000D+01 0.1407000D+01 0.1407000D+01 0.3880000D+00 0.3880000D+00
EXPONENTS  0.3880000D+00 0.1020000D+00 0.1020000D+00 0.1020000D+00 0.1057000D+01
EXPONENTS  0.1057000D+01 0.1057000D+01 0.1057000D+01 0.1057000D+01 0.1057000D+01
EXPONENTS  0.2470000D+00 0.2470000D+00 0.2470000D+00 0.2470000D+00 0.2470000D+00
EXPONENTS  0.2470000D+00
MO    1     MO 0.0        OCC NO =    2.0000000  ORB. ENERGY =    0.000000
  0.93356434D-01  0.17400104D+00  0.29504322D+00  0.44651654D+00  0.55699419D+00
  0.47798388D+00  0.18304243D+00  0.12084185D-05  0.12965538D-04  0.47793413D-04
  0.13974513D-03  0.16839968D-03 -0.20285526D-03  0.10398480D-01  0.19436180D-01
  0.31358074D-02  0.86503343D-02  0.83879144D-02  0.56584375D-02  0.13621654D+01
  0.13208422D+01  0.89103234D+00  0.50043747D+00  0.48525601D+00  0.32735084D+00
  0.24175941D-02  0.28472976D+00  0.10662919D+00  0.78381545D-03  0.27683290D-01
  0.11978072D-01  0.38609720D-04  0.29051720D-03  0.23793945D-03  0.13387938D-01
 -0.28547244D-03 -0.13102465D-01 -0.44251262D-02  0.60603320D-03 -0.12675635D+00
  0.13196169D-02  0.25202957D-02 -0.38399126D-02 -0.81525839D-03 -0.18040862D-03
 -0.18035694D-01 -0.37961125D-03  0.54601874D-03 -0.16640750D-03 -0.25068058D-04
 -0.29200955D-04  0.74535032D-03  0.82088046D-04  0.64781538D-02  0.47918247D-03
 -0.10233836D-02 -0.15016983D-01 -0.50833118D-02  0.77711948D-03 -0.44174788D-02
  0.36457643D-02  0.34294673D-03  0.22534501D-04  0.16625275D-03  0.25742201D-03
 -0.94935618D-04 -0.93922075D-03  0.17791100D-04  0.27332115D-04  0.44046250D-03
 -0.79005712D-03  0.15651680D-03 -0.44159473D-01 -0.79643427D-01 -0.11743419D+00
 -0.83086563D-01 -0.10493620D-01  0.79936182D-04  0.23394788D-03 -0.28163964D-01
 -0.26400754D-01  0.15677591D-03 -0.11049387D-01 -0.10393146D-01  0.35804604D-04
  0.24606770D-03  0.16719280D-03  0.79965758D-02 -0.57811058D-02 -0.22154700D-02
  0.14941028D-03  0.37093393D-04 -0.22728432D-01  0.63423025D-04  0.10581188D-03
 -0.16923490D-03  0.54221887D-05  0.64918562D-05 -0.35301050D-03  0.25965100D-01
  0.46829127D-01  0.69049520D-01  0.44845547D-01  0.47571989D-02 -0.16395552D-03
  0.16383629D-02 -0.10251530D-01  0.22225048D-01  0.68292896D-03 -0.26081407D-02
  0.92883976D-02  0.41529393D-04  0.37723790D-03  0.46409842D-03 -0.45973920D-02
  0.11147596D-02  0.34826323D-02 -0.11799557D-02  0.12834933D-02 -0.14753611D-01
 -0.30710793D-04 -0.20447604D-03  0.23518683D-03 -0.43679348D-04  0.59955886D-04
 -0.82265896D-03
MO    2     MO 0.0        OCC NO =    2.0000000  ORB. ENERGY =    0.000000
 -0.11122921D+00 -0.20731296D+00 -0.35152825D+00 -0.53200062D+00 -0.66362885D+00
 -0.56949228D+00 -0.21808529D+00  0.15417164D-04  0.16541605D-03  0.60975470D-03
  0.17828870D-02  0.21484655D-02 -0.25880544D-02 -0.13757595D-01  0.44689153D-01
  0.86152448D-02 -0.13916362D+00 -0.13494190D+00 -0.91031011D-01 -0.38346570D+00
 -0.37183274D+00 -0.25083617D+00  0.14725981D+01  0.14279248D+01  0.96326964D+00
 -0.32006695D-01 -0.83155090D-01  0.32159392D+00 -0.59771087D-02 -0.95320890D-02
  0.40328634D-01 -0.22168455D-03 -0.11085391D-03  0.81196353D-03  0.40667322D-01
 -0.37049143D-02 -0.36962408D-01  0.43859340D-02  0.95491845D-03  0.31094888D-01
  0.58343052D-02  0.53579932D-02 -0.11192298D-01  0.24995757D-03  0.60592076D-03
  0.65878443D-02 -0.60400829D-03  0.12358229D-02 -0.63181459D-03 -0.12236852D-03
  0.14520067D-03  0.33172978D-03  0.35900824D-03 -0.22793016D-02  0.75947530D-03
 -0.15287504D-02  0.50861027D-02 -0.17730813D-01  0.45172567D-03  0.17518022D-02
  0.15452387D-01 -0.24973563D-02  0.28456816D-04  0.89320314D-04  0.57613232D-03
 -0.13220467D-03  0.41367624D-03 -0.34238874D-03  0.46834225D-04 -0.68163719D-03
 -0.13860082D-02  0.41532116D-04 -0.18106764D-01 -0.32656294D-01 -0.48151687D-01
 -0.37634828D-01 -0.68947134D-02 -0.14288711D-03 -0.20306414D-02 -0.21412414D-01
  0.58925843D-02 -0.11461992D-02 -0.10825566D-01  0.29827171D-02 -0.19349339D-03
 -0.41356759D-03  0.10430317D-02  0.19292971D-02 -0.62704535D-02  0.43411564D-02
 -0.10687671D-02 -0.81459372D-03 -0.27750335D-02  0.13298445D-03 -0.40612181D-03
  0.27313736D-03 -0.98536563D-04 -0.10409795D-03  0.51973133D-03 -0.35845073D-01
 -0.64648065D-01 -0.95323534D-01 -0.68590438D-01 -0.11608608D-01 -0.94715882D-04
 -0.37831801D-02  0.27651934D-01 -0.54010044D-02 -0.19910285D-02  0.13565538D-01
 -0.21338439D-02 -0.20898150D-03  0.32082919D-03  0.85257156D-03  0.46183137D-02
 -0.72650022D-02  0.26466885D-02  0.25789917D-02 -0.14736951D-02  0.10345069D-01
  0.29489700D-03 -0.37189737D-03  0.77000373D-04  0.18697104D-03 -0.10105724D-03
  0.90507142D-04
MO    3     MO 0.0        OCC NO =    2.0000000  ORB. ENERGY =    0.000000
  0.46951375D+00  0.87509642D+00  0.14838490D+01  0.22456476D+01  0.28012684D+01
  0.24039050D+01  0.92056792D+00  0.76670853D-04  0.82262793D-03  0.30323615D-02
  0.88664470D-02  0.10684500D-01 -0.12870612D-01  0.48080765D-01  0.70343534D-02
  0.15972142D-02  0.29159157D+00  0.28274574D+00  0.19073861D+00 -0.35600842D+00
 -0.34520842D+00 -0.23287556D+00  0.26086426D+00  0.25295058D+00  0.17063897D+00
  0.65729344D-01 -0.75972002D-01  0.58879491D-01  0.10650475D-01 -0.78610301D-02
  0.74800487D-02  0.33705166D-03 -0.84409253D-04  0.13999056D-03  0.53247398D-02
  0.10745821D-02 -0.63993219D-02  0.13179805D-02 -0.12685095D-01  0.33540507D-01
  0.14344259D-02  0.46469643D-03 -0.18991224D-02  0.36683824D-03 -0.32841750D-02
  0.56578330D-02 -0.40526579D-04  0.15303801D-03 -0.11251143D-03  0.12244731D-04
 -0.20628438D-03 -0.10854104D-05 -0.18316865D-02 -0.17141987D-02  0.41047353D-03
  0.39282917D-02  0.43105975D-02 -0.22557583D-02  0.15667679D-02  0.83199842D-03
  0.10243378D-02 -0.37544502D-03 -0.94299821D-04 -0.15198191D-04 -0.52686591D-04
  0.15741843D-03  0.26987424D-03 -0.35294443D-03  0.12548103D-03 -0.22427967D-03
  0.51100421D-03 -0.18060525D-03  0.37712840D-02  0.68016660D-02  0.10029052D-01
  0.55206080D-02 -0.40131304D-04 -0.57851693D-04  0.40216450D-02 -0.78595940D-03
  0.59646804D-02  0.21801798D-02 -0.13450388D-02  0.21576419D-02  0.33071033D-03
 -0.21347793D-03  0.16345724D-03  0.58422551D-04 -0.14710530D-02  0.14126304D-02
  0.19940686D-02  0.14922179D-02  0.61254999D-03  0.36321789D-04 -0.13591793D-03
  0.99596144D-04  0.21262251D-03  0.12671507D-03  0.13752941D-03 -0.14586500D-01
 -0.26307353D-01 -0.38790177D-01 -0.26399040D-01 -0.38580565D-02  0.16435645D-04
  0.28610297D-02  0.94698033D-02 -0.59199897D-02  0.16342029D-02  0.41832077D-02
 -0.24911557D-02  0.30079684D-03  0.16969484D-04  0.10141002D-03  0.28625149D-02
 -0.28148022D-02 -0.47712692D-04 -0.11058332D-02  0.76831633D-03  0.73664438D-02
  0.91998885D-04 -0.57798644D-04 -0.34200241D-04 -0.16072350D-03  0.84604310D-04
  0.20505593D-03
MO    4     MO 0.0        OCC NO =    2.0000000  ORB. ENERGY =    0.000000
 -0.10495470D+00 -0.19561831D+00 -0.33169833D+00 -0.50199015D+00 -0.62619314D+00
 -0.53736688D+00 -0.20578297D+00 -0.35144401D-03 -0.37707636D-02 -0.13899745D-01
 -0.40642038D-01 -0.48975632D-01  0.58996338D-01  0.23908582D-01  0.22474343D-01
  0.21519718D-02  0.17307454D+01  0.16782409D+01  0.11321314D+01  0.37390201D-01
  0.36255918D-01  0.24458028D-01  0.11359046D+00  0.11014454D+00  0.74302856D-01
  0.39086484D+00  0.89153111D-02  0.23034582D-01  0.64747172D-01  0.17130704D-02
  0.30289932D-02  0.21049646D-02  0.63495744D-04  0.26985336D-04 -0.16161413D-02
  0.35239255D-02 -0.19077842D-02 -0.25571539D-02 -0.68229689D-01 -0.60143664D-03
 -0.12944117D-02  0.18602909D-02 -0.56587918D-03  0.22975234D-03 -0.18045749D-01
 -0.49868501D-03 -0.15696546D-03  0.17764471D-03 -0.20679244D-04  0.13432171D-03
 -0.12716089D-02 -0.44487593D-04 -0.10152678D-01  0.62183752D-03  0.15505761D-03
  0.21841125D-01 -0.22263058D-02  0.75772895D-03  0.86169077D-02  0.36079325D-03
 -0.12229018D-02  0.11429614D-02 -0.44332060D-03  0.32392987D-04  0.29977590D-04
  0.73079633D-03 -0.12053497D-03  0.18317894D-03  0.59916547D-03  0.23356009D-04
 -0.27311171D-03 -0.49951464D-03  0.90405352D-03  0.16304978D-02  0.24041680D-02
 -0.32486381D-02 -0.16294524D-02 -0.33253393D-04  0.24083517D-01  0.19575655D-02
  0.27261556D-02  0.13156834D-01 -0.68443858D-03  0.21100321D-03  0.20358677D-02
 -0.52026571D-04  0.35851064D-04 -0.25224075D-03 -0.22799476D-04  0.27504023D-03
  0.12023273D-01  0.89804973D-02  0.10282270D-02  0.26196230D-04 -0.23753909D-04
 -0.24423212D-05  0.12595813D-02  0.80401439D-03  0.77994756D-05 -0.72556897D-04
 -0.13085935D-03 -0.19295204D-03 -0.47659116D-02 -0.19019215D-02 -0.34102899D-04
  0.21907231D-01  0.36299936D-04  0.18808569D-02  0.11927118D-01  0.17182957D-02
 -0.50245621D-04  0.18993055D-02  0.19025483D-03  0.23827147D-04  0.70212724D-03
 -0.90480579D-03  0.20267855D-03 -0.11246148D-01  0.79276512D-02  0.19414169D-03
  0.10855411D-03 -0.10755577D-03 -0.99834076D-06 -0.11291208D-02  0.64000203D-03
  0.66326183D-04
MO    5     MO 0.0        OCC NO =    2.0000000  ORB. ENERGY =    0.000000
 -0.81805240D-01 -0.15247152D+00 -0.25853688D+00 -0.39126808D+00 -0.48807609D+00
 -0.41884190D+00 -0.16039420D+00 -0.17087204D-02 -0.18333448D-01 -0.67580543D-01
 -0.19760154D+00 -0.23811947D+00  0.28684013D+00  0.16663670D+00  0.92256804D-01
  0.70008183D-02 -0.33190268D+00 -0.32183396D+00 -0.21710729D+00 -0.27296493D-01
 -0.26468416D-01 -0.17855437D-01  0.29686590D+00  0.28786006D+00  0.19418870D+00
 -0.75317969D-01 -0.45588757D-02  0.60112942D-01 -0.12427277D-01 -0.27494838D-03
  0.11707096D-01 -0.41042815D-03 -0.14720886D-04  0.23670984D-03 -0.12982179D-01
  0.21140051D-01 -0.81578722D-02 -0.15725809D-02  0.13914923D-01  0.37067823D-02
 -0.47304653D-02  0.65367467D-02 -0.18062814D-02 -0.82947870D-03  0.38819566D-02
 -0.57438884D-03 -0.16801258D-03  0.27159911D-03 -0.10358652D-03 -0.63453174D-04
  0.26510845D-03 -0.99839840D-04  0.21271178D-02  0.81554800D-05  0.25796847D-02
 -0.48071139D-02  0.21742561D-03  0.20403535D-02 -0.15742397D-02 -0.24189205D-03
 -0.97794076D-02  0.55472418D-03  0.10288930D-03 -0.18063191D-04 -0.87926714D-04
 -0.15373869D-03 -0.12433781D-03  0.19348650D-03 -0.15492922D-03  0.17852738D-03
  0.70293641D-04  0.14104026D-03  0.14624678D-01  0.26376209D-01  0.38891704D-01
  0.36871908D-02 -0.48860804D-02 -0.11657449D-03 -0.45683276D-02  0.15704507D-01
  0.17658817D-01 -0.24691454D-02 -0.10554561D-02  0.28917649D-02 -0.38491476D-03
 -0.49480403D-03  0.13263566D-03 -0.16333714D-02  0.23341704D-04  0.16100297D-02
 -0.22354770D-02 -0.17271865D-02  0.64229436D-02  0.11807199D-03 -0.17947633D-03
  0.61404346D-04 -0.23469958D-03 -0.16383703D-03 -0.63494236D-04  0.12636966D-01
  0.22791288D-01  0.33605741D-01  0.17933492D-02 -0.49696605D-02 -0.11448558D-03
 -0.32938896D-02 -0.14092965D-01  0.14990819D-01 -0.23244845D-02  0.12355986D-02
  0.26296750D-02 -0.38990143D-03  0.48159188D-03  0.14045199D-03 -0.12066457D-02
 -0.22195927D-03  0.14286050D-02  0.20049142D-02 -0.12204159D-02 -0.48492479D-02
  0.92920107D-04 -0.17997316D-03  0.87053055D-04  0.24611177D-03 -0.13058317D-03
 -0.14507106D-05
END DATA
 TOTAL ENERGY =    -76.464583881771 THE VIRIAL(-V/T)=   2.00693803
