 76
GAUSSIAN              5 MOL ORBITALS    126 PRIMITIVES        3 NUCLEI   B3LYP
  O    1    (CENTRE  1)   0.00000000  0.00000000  0.00815606  CHARGE =  8.0
  H    2    (CENTRE  2)   0.00000000 -1.44255835 -1.09730160  CHARGE =  1.0
  H    3    (CENTRE  3)  -0.09448631  1.34807204 -1.09730160  CHARGE =  1.0
CENTRE ASSIGNMENTS    1  1  1  1  1  1  1  1  1  1  1  1  1  1  1  1  1  1  1  1
CENTRE ASSIGNMENTS    1  1  1  1  1  1  1  1  1  1  1  1  1  1  1  1  1  1  1  1
CENTRE ASSIGNMENTS    1  1  1  1  1  1  1  1  1  1  1  1  1  1  1  1  1  1  1  1
CENTRE ASSIGNMENTS    1  1  1  1  1  1  1  1  1  1  1  1  2  2  2  2  2  2  2  2
CENTRE ASSIGNMENTS    2  2  2  2  2  2  2  2  2  2  2  2  2  2  2  2  2  2  2  3
CENTRE ASSIGNMENTS    3  3  3  3  3  3  3  3  3  3  3  3  3  3  3  3  3  3  3  3
CENTRE ASSIGNMENTS    3  3  3  3  3  3
TYPE ASSIGNMENTS      1  1  1  1  1  1  1  1  1  1  1  1  1  1  1  1  2  2  2  3
TYPE ASSIGNMENTS      3  3  4  4  4  2  3  4  2  3  4  2  3  4  5  6  7  8  9 10
TYPE ASSIGNMENTS      5  6  7  8  9 10  5  6  7  8  9 10 11 12 13 17 14 15 18 19
TYPE ASSIGNMENTS     16 20 11 12 13 17 14 15 18 19 16 20  1  1  1  1  1  1  2  3
TYPE ASSIGNMENTS      4  2  3  4  2  3  4  5  6  7  8  9 10  5  6  7  8  9 10  1
TYPE ASSIGNMENTS      1  1  1  1  1  2  3  4  2  3  4  2  3  4  5  6  7  8  9 10
TYPE ASSIGNMENTS      5  6  7  8  9 10
EXPONENTS  0.1533000D+05 0.2299000D+04 0.5224000D+03 0.1473000D+03 0.4755000D+02
EXPONENTS  0.1676000D+02 0.6207000D+01 0.5224000D+03 0.1473000D+03 0.4755000D+02
EXPONENTS  0.1676000D+02 0.6207000D+01 0.6882000D+00 0.1752000D+01 0.2384000D+00
EXPONENTS  0.7376000D-01 0.3446000D+02 0.7749000D+01 0.2280000D+01 0.3446000D+02
EXPONENTS  0.7749000D+01 0.2280000D+01 0.3446000D+02 0.7749000D+01 0.2280000D+01
EXPONENTS  0.7156000D+00 0.7156000D+00 0.7156000D+00 0.2140000D+00 0.2140000D+00
EXPONENTS  0.2140000D+00 0.5974000D-01 0.5974000D-01 0.5974000D-01 0.2314000D+01
EXPONENTS  0.2314000D+01 0.2314000D+01 0.2314000D+01 0.2314000D+01 0.2314000D+01
EXPONENTS  0.6450000D+00 0.6450000D+00 0.6450000D+00 0.6450000D+00 0.6450000D+00
EXPONENTS  0.6450000D+00 0.2140000D+00 0.2140000D+00 0.2140000D+00 0.2140000D+00
EXPONENTS  0.2140000D+00 0.2140000D+00 0.1428000D+01 0.1428000D+01 0.1428000D+01
EXPONENTS  0.1428000D+01 0.1428000D+01 0.1428000D+01 0.1428000D+01 0.1428000D+01
EXPONENTS  0.1428000D+01 0.1428000D+01 0.5000000D+00 0.5000000D+00 0.5000000D+00
EXPONENTS  0.5000000D+00 0.5000000D+00 0.5000000D+00 0.5000000D+00 0.5000000D+00
EXPONENTS  0.5000000D+00 0.5000000D+00 0.3387000D+02 0.5095000D+01 0.1159000D+01
EXPONENTS  0.3258000D+00 0.1027000D+00 0.2526000D-01 0.1407000D+01 0.1407000D+01
EXPONENTS  0.1407000D+01 0.3880000D+00 0.3880000D+00 0.3880000D+00 0.1020000D+00
EXPONENTS  0.1020000D+00 0.1020000D+00 0.1057000D+01 0.1057000D+01 0.1057000D+01
EXPONENTS  0.1057000D+01 0.1057000D+01 0.1057000D+01 0.2470000D+00 0.2470000D+00
EXPONENTS  0.2470000D+00 0.2470000D+00 0.2470000D+00 0.2470000D+00 0.3387000D+02
EXPONENTS  0.5095000D+01 0.1159000D+01 0.3258000D+00 0.1027000D+00 0.2526000D-01
EXPONENTS  0.1407000D+01 0.1407000D+01 0.1407000D+01 0.3880000D+00 0.3880000D+00
EXPONENTS  0.3880000D+00 0.1020000D+00 0.1020000D+00 0.1020000D+00 0.1057000D+01
EXPONENTS  0.1057000D+01 0.1057000D+01 0.1057000D+01 0.1057000D+01 0.1057000D+01
EXPONENTS  0.2470000D+00 0.2470000D+00 0.2470000D+00 0.2470000D+00 0.2470000D+00
EXPONENTS  0.2470000D+00
MO    1     MO 0.0        OCC NO =    2.0000000  ORB. ENERGY =    0.000000
  0.16112342D-01  0.30030756D-01  0.50921367D-01  0.77064074D-01  0.96131357D-01
  0.82495007D-01  0.31591205D-01  0.51029978D-04  0.54751817D-03  0.20182551D-02
  0.59012594D-02  0.71113046D-02 -0.85663200D-02 -0.26701124D-02 -0.17591985D-01
 -0.22914770D-02 -0.12329063D+00 -0.11955044D+00 -0.80648021D-01  0.14426439D+01
  0.13988793D+01  0.94367573D+00 -0.35989642D+00 -0.34897846D+00 -0.23541881D+00
 -0.26452958D-01  0.29379758D+00 -0.74567696D-01 -0.33625291D-02  0.26033776D-01
 -0.73799306D-02 -0.81992757D-04  0.23538864D-03 -0.13692452D-03 -0.92587057D-02
 -0.14708672D-02  0.10729573D-01 -0.66804975D-02  0.89419594D-02 -0.13724967D+00
 -0.49386064D-03 -0.22548593D-02  0.27487199D-02 -0.53553320D-03  0.14253940D-02
 -0.15232648D-01  0.38034835D-03 -0.42365206D-03  0.43303712D-04  0.12628601D-03
 -0.42784635D-04  0.15060823D-02  0.97016715D-03  0.64632244D-02 -0.44714268D-03
 -0.23820678D-02 -0.13170926D-01  0.36969332D-02 -0.52843363D-03 -0.62187468D-02
 -0.23555052D-02  0.10694006D-02  0.20709636D-04  0.13391512D-03 -0.23817702D-03
 -0.25951343D-04 -0.60834725D-03 -0.21341734D-03 -0.36177564D-04  0.20660189D-03
  0.92794841D-03 -0.24001041D-04 -0.31273156D-01 -0.56402424D-01 -0.83165341D-01
 -0.56798053D-01 -0.66914765D-02  0.13182713D-03 -0.15057307D-02 -0.15629906D-01
 -0.27697350D-01 -0.75533101D-03 -0.53618389D-02 -0.11262776D-01 -0.94297440D-04
  0.19074606D-03 -0.46108312D-03  0.64010419D-02 -0.21772875D-02 -0.42237544D-02
 -0.71140941D-03 -0.55111617D-03 -0.20123136D-01  0.85137094D-04  0.10232609D-03
 -0.18746319D-03 -0.76648540D-04 -0.23463245D-04 -0.75872320D-03  0.43946358D-01
  0.79259066D-01  0.11686745D+00  0.85006730D-01  0.10176714D-01 -0.79769910D-04
  0.15117155D-02 -0.28707725D-01  0.32303599D-01  0.41155605D-03 -0.10647533D-01
  0.12007291D-01 -0.83756164D-04  0.25357593D-03 -0.78234886D-04 -0.85794471D-02
  0.47800539D-02  0.37993932D-02 -0.15917720D-02  0.16140945D-02 -0.25106507D-01
  0.27769814D-04 -0.17461592D-03  0.14684610D-03  0.54531436D-04 -0.16883858D-04
 -0.10404154D-03
MO    2     MO 0.0        OCC NO =    2.0000000  ORB. ENERGY =    0.000000
  0.32345551D+00  0.60286788D+00  0.10222472D+01  0.15470625D+01  0.19298385D+01
  0.16560885D+01  0.63419392D+00  0.54082119D-03  0.58026564D-02  0.21389684D-01
  0.62542182D-01  0.75366370D-01 -0.90786780D-01 -0.17902818D-01 -0.65163068D-01
 -0.84343611D-02 -0.80620969D-02 -0.78175220D-02 -0.52736542D-02 -0.27588717D+00
 -0.26751776D+00 -0.18046590D+00 -0.12426166D+01 -0.12049201D+01 -0.81283201D+00
 -0.14231576D-02 -0.57410906D-01 -0.26773042D+00  0.11698400D-03 -0.59307008D-02
 -0.33141001D-01  0.17649695D-04 -0.60654867D-04 -0.63254839D-03 -0.30136845D-01
 -0.48316274D-02  0.34968472D-01 -0.64809947D-03  0.33702343D-02  0.23273575D-01
 -0.30431541D-02 -0.64739044D-02  0.95170585D-02  0.38148014D-03  0.58870386D-03
  0.36895369D-02  0.68945345D-03 -0.11206448D-02  0.43119134D-03  0.12201679D-03
 -0.49586622D-04  0.56243920D-04  0.31302714D-03 -0.14177752D-02 -0.18400950D-02
  0.40047441D-03  0.26696762D-02  0.14200682D-01 -0.13395558D-02  0.15836493D-02
 -0.86803966D-02  0.14450845D-02 -0.17913084D-04  0.83562043D-04 -0.49954552D-03
  0.84187749D-04  0.19421716D-03 -0.11380224D-03 -0.30448497D-04 -0.44490329D-03
  0.16124388D-02 -0.16199109D-03  0.24134475D-01  0.43527520D-01  0.64181303D-01
  0.53698209D-01  0.94472911D-02  0.93296518D-04 -0.11051516D-03  0.19400152D-01
  0.60360290D-03 -0.48298398D-04  0.10771640D-01  0.79659930D-03 -0.12329272D-06
  0.23531956D-03 -0.79999179D-03 -0.33714827D-02  0.57944179D-02 -0.24229352D-02
 -0.75325542D-04  0.51850285D-04  0.65024495D-02 -0.12651058D-03  0.17752349D-03
 -0.51012909D-04 -0.41634950D-05  0.30762681D-04 -0.23368636D-03  0.10960679D-01
  0.19768035D-01  0.29147956D-01  0.29583879D-01  0.57571464D-02  0.11602919D-03
  0.59248159D-03 -0.13448259D-01 -0.97647190D-02  0.40624905D-03 -0.78082588D-02
 -0.37368905D-02  0.95055528D-05 -0.20089849D-03 -0.97965675D-03 -0.61112309D-03
  0.46816757D-02 -0.40705526D-02 -0.58165266D-03 -0.12883310D-03  0.11373796D-02
  0.11953501D-05  0.16917730D-03 -0.17037265D-03 -0.10968997D-04 -0.18038961D-04
  0.66752648D-03
MO    3     MO 0.0        OCC NO =    2.0000000  ORB. ENERGY =    0.000000
  0.36595974D+00  0.68208879D+00  0.11565774D+01  0.17503569D+01  0.21834323D+01
  0.18737097D+01  0.71753128D+00  0.67487871D-03  0.72410056D-02  0.26691710D-01
  0.78044995D-01  0.94048014D-01 -0.11329080D+00 -0.26598830D-01  0.18915181D-02
  0.33665481D-02  0.64419341D-01  0.62465091D-01  0.42138581D-01  0.17029594D+00
  0.16512977D+00  0.11139557D+00  0.91552535D+00  0.88775162D+00  0.59887200D+00
  0.14204545D-01  0.38083227D-01  0.19881692D+00  0.18722475D-02  0.47266245D-02
  0.21222974D-01  0.50477420D-04  0.60426217D-04  0.40728126D-03  0.32477031D-01
 -0.63389502D-02 -0.26138080D-01  0.20433430D-02 -0.59814340D-02 -0.14283522D-01
  0.53339559D-02  0.22194368D-02 -0.75533927D-02  0.32253909D-04 -0.13258814D-02
 -0.38469943D-02 -0.55659361D-03  0.87967595D-03 -0.32308234D-03 -0.11311197D-03
  0.11342510D-04 -0.29574551D-03 -0.63592818D-03  0.10099411D-02  0.87963217D-03
  0.51291555D-03 -0.26242201D-02 -0.12209579D-01  0.13948690D-02 -0.40560327D-03
  0.95706828D-02 -0.13066055D-02 -0.70585391D-05 -0.80029336D-04  0.44394903D-03
 -0.50526361D-04 -0.23630132D-03 -0.23297949D-03  0.71701979D-04  0.47638933D-03
 -0.10988676D-02  0.13163629D-03 -0.28708429D-01 -0.51776835D-01 -0.76344913D-01
 -0.46912883D-01 -0.49896964D-02 -0.11963068D-04  0.84488961D-03 -0.26540719D-01
 -0.10542195D-01  0.41835233D-03 -0.90203135D-02 -0.24880466D-02  0.58196146D-04
  0.76149692D-04  0.59936873D-03  0.47726137D-02 -0.59234246D-02  0.11508109D-02
  0.41087691D-03  0.22587695D-03 -0.11726859D-01  0.40731093D-04 -0.33806389D-04
 -0.69247038D-05  0.37285368D-04  0.15565300D-06  0.24563128D-03 -0.21710533D-01
 -0.39155841D-01 -0.57735265D-01 -0.35102697D-01 -0.31993657D-02 -0.42715122D-04
 -0.71585778D-03  0.25527020D-01 -0.68441292D-02 -0.59677170D-04  0.83006895D-02
 -0.49920449D-03  0.66395763D-04 -0.54192716D-06  0.67856067D-03  0.39725133D-02
 -0.58105276D-02  0.18380142D-02  0.88397698D-03 -0.35486192D-03  0.98794825D-02
 -0.49536973D-04 -0.58378611D-04  0.10791558D-03 -0.47164241D-04  0.48658234D-04
 -0.55823040D-03
MO    4     MO 0.0        OCC NO =    2.0000000  ORB. ENERGY =    0.000000
  0.14059263D+00  0.26204154D+00  0.44432825D+00  0.67244356D+00  0.83882034D+00
  0.71983265D+00  0.27565766D+00 -0.14444638D-02 -0.15498149D-01 -0.57129095D-01
 -0.16704212D+00 -0.20129388D+00  0.24247981D+00  0.16567989D+00  0.79751539D-01
  0.62567969D-02 -0.47613006D+00 -0.46168600D+00 -0.31145065D+00 -0.40588779D-02
 -0.39357462D-02 -0.26550312D-02  0.30196402D+00  0.29280353D+00  0.19752353D+00
 -0.10760598D+00 -0.22003289D-02  0.63433481D-01 -0.17472269D-01 -0.70626544D-03
  0.11939075D-01 -0.55806391D-03 -0.16852119D-04  0.22392128D-03 -0.11368081D-01
  0.19334646D-01 -0.79665654D-02 -0.27792163D-02  0.21333051D-01 -0.21017284D-02
 -0.31557859D-02  0.47431530D-02 -0.15873672D-02 -0.32879701D-03  0.53021440D-02
  0.86573211D-03 -0.62618142D-04  0.14273753D-03 -0.80119387D-04  0.33195576D-04
  0.31632729D-03  0.10953416D-03  0.30279862D-02 -0.37299763D-03  0.23801184D-02
 -0.63358550D-02  0.86646654D-03  0.15910623D-02 -0.27481036D-02  0.25252634D-03
 -0.87314174D-02  0.92204440D-03  0.67160457D-04  0.23253456D-04 -0.24540043D-03
 -0.54257746D-04  0.14418227D-03 -0.17177310D-03 -0.14722362D-03 -0.21394263D-03
  0.90797438D-03 -0.26345651D-03  0.11091576D-01  0.20004114D-01  0.29496054D-01
  0.35092946D-03 -0.44737294D-02 -0.96097866D-04 -0.65272354D-02  0.11560295D-01
  0.14689261D-01 -0.34989637D-02 -0.18487437D-02  0.24726325D-02 -0.54219754D-03
 -0.45783434D-03  0.14777430D-03 -0.79041780D-03 -0.78587815D-03  0.15762960D-02
 -0.32165837D-02 -0.23626436D-02  0.34837278D-02  0.10827500D-03 -0.18598636D-03
  0.77711355D-04 -0.33335836D-03 -0.21063103D-03 -0.62987776D-04  0.12637786D-01
  0.22792767D-01  0.33607921D-01  0.15616264D-02 -0.44419176D-02 -0.98807451D-04
 -0.62305131D-02 -0.13208802D-01  0.16881232D-01 -0.39485557D-02  0.15463123D-02
  0.25262566D-02 -0.60799861D-03  0.41392585D-03  0.13438428D-03 -0.13083321D-02
 -0.45695103D-03  0.17652831D-02  0.33126645D-02 -0.23872367D-02 -0.45697375D-02
  0.98893834D-04 -0.15063704D-03  0.51743201D-04  0.40222644D-03 -0.26712034D-03
  0.11711725D-03
MO    5     MO 0.0        OCC NO =    2.0000000  ORB. ENERGY =    0.000000
  0.27141567D-01  0.50587418D-01  0.85778076D-01  0.12981600D+00  0.16193522D+00
  0.13896451D+00  0.53216026D-01 -0.43211925D-03 -0.46363560D-02 -0.17090481D-01
 -0.49971565D-01 -0.60218165D-01  0.72539162D-01  0.47835061D-01  0.23449533D-01
  0.18253983D-02  0.17193601D+01  0.16672010D+01  0.11246839D+01  0.11389575D+00
  0.11044057D+00  0.74502555D-01  0.26492770D-02  0.25689075D-02  0.17329698D-02
  0.38798019D+00  0.24159553D-01 -0.65585727D-03  0.63348873D-01  0.30528876D-02
  0.47161134D-03  0.19969212D-02  0.76798081D-04 -0.29686163D-04 -0.70219200D-02
  0.57282325D-02  0.12936876D-02  0.89655895D-03 -0.72732777D-01 -0.82944745D-02
 -0.17837854D-02  0.13500881D-02  0.43369724D-03 -0.84712162D-03 -0.18044260D-01
 -0.92169217D-03 -0.58564468D-04  0.29829457D-04  0.28735011D-04 -0.15230580D-03
 -0.11257155D-02  0.50767383D-04 -0.10278191D-01  0.89903293D-03  0.20492727D-03
  0.20824889D-01 -0.29300018D-02  0.29535813D-02  0.10009684D-01  0.23290304D-03
 -0.35683631D-02 -0.23892003D-03 -0.27977577D-03  0.23884979D-04 -0.97481323D-04
  0.36832827D-03 -0.10544522D-04  0.15581729D-04  0.47099903D-03 -0.61110415D-04
  0.27686224D-03  0.53414447D-03  0.20592180D-02  0.37138844D-02  0.54761204D-02
 -0.21847742D-02 -0.16189973D-02 -0.24633891D-04  0.23854023D-01  0.36630397D-02
  0.22632259D-02  0.12917656D-01 -0.31384339D-03 -0.26975760D-03  0.19849473D-02
 -0.58108199D-04 -0.61215348D-04 -0.37649518D-04  0.11236963D-03 -0.74720114D-04
  0.11856173D-01  0.86283396D-02  0.11766010D-03  0.25984992D-04 -0.77591334D-05
 -0.18225858D-04  0.12324610D-02  0.73785881D-03 -0.74697920D-04  0.52201926D-02
  0.94148323D-02  0.13882165D-01  0.32886368D-02 -0.98548798D-03 -0.32596741D-04
  0.26478845D-01 -0.39206542D-02  0.49785787D-02  0.14107630D-01  0.62022807D-03
  0.54220288D-03  0.21018544D-02  0.20718112D-03 -0.55695916D-04  0.20773188D-03
 -0.42660615D-03  0.21887428D-03 -0.12593514D-01  0.99544409D-02 -0.13900115D-02
  0.12169220D-03 -0.99975836D-04 -0.21716364D-04 -0.13174373D-02  0.89438147D-03
  0.12132941D-03
END DATA
 TOTAL ENERGY =    -76.464538425815 THE VIRIAL(-V/T)=   2.00487498
