 77
GAUSSIAN              5 MOL ORBITALS    126 PRIMITIVES        3 NUCLEI   B3LYP
  O    1    (CENTRE  1)   0.00000000  0.00000000  0.00815606  CHARGE =  8.0
  H    2    (CENTRE  2)   0.00000000 -1.44255835 -1.09730160  CHARGE =  1.0
  H    3    (CENTRE  3)   0.00000000  1.53704465 -1.09730160  CHARGE =  1.0
CENTRE ASSIGNMENTS    1  1  1  1  1  1  1  1  1  1  1  1  1  1  1  1  1  1  1  1
CENTRE ASSIGNMENTS    1  1  1  1  1  1  1  1  1  1  1  1  1  1  1  1  1  1  1  1
CENTRE ASSIGNMENTS    1  1  1  1  1  1  1  1  1  1  1  1  1  1  1  1  1  1  1  1
CENTRE ASSIGNMENTS    1  1  1  1  1  1  1  1  1  1  1  1  2  2  2  2  2  2  2  2
CENTRE ASSIGNMENTS    2  2  2  2  2  2  2  2  2  2  2  2  2  2  2  2  2  2  2  3
CENTRE ASSIGNMENTS    3  3  3  3  3  3  3  3  3  3  3  3  3  3  3  3  3  3  3  3
CENTRE ASSIGNMENTS    3  3  3  3  3  3
TYPE ASSIGNMENTS      1  1  1  1  1  1  1  1  1  1  1  1  1  1  1  1  2  2  2  3
TYPE ASSIGNMENTS      3  3  4  4  4  2  3  4  2  3  4  2  3  4  5  6  7  8  9 10
TYPE ASSIGNMENTS      5  6  7  8  9 10  5  6  7  8  9 10 11 12 13 17 14 15 18 19
TYPE ASSIGNMENTS     16 20 11 12 13 17 14 15 18 19 16 20  1  1  1  1  1  1  2  3
TYPE ASSIGNMENTS      4  2  3  4  2  3  4  5  6  7  8  9 10  5  6  7  8  9 10  1
TYPE ASSIGNMENTS      1  1  1  1  1  2  3  4  2  3  4  2  3  4  5  6  7  8  9 10
TYPE ASSIGNMENTS      5  6  7  8  9 10
EXPONENTS  0.1533000D+05 0.2299000D+04 0.5224000D+03 0.1473000D+03 0.4755000D+02
EXPONENTS  0.1676000D+02 0.6207000D+01 0.5224000D+03 0.1473000D+03 0.4755000D+02
EXPONENTS  0.1676000D+02 0.6207000D+01 0.6882000D+00 0.1752000D+01 0.2384000D+00
EXPONENTS  0.7376000D-01 0.3446000D+02 0.7749000D+01 0.2280000D+01 0.3446000D+02
EXPONENTS  0.7749000D+01 0.2280000D+01 0.3446000D+02 0.7749000D+01 0.2280000D+01
EXPONENTS  0.7156000D+00 0.7156000D+00 0.7156000D+00 0.2140000D+00 0.2140000D+00
EXPONENTS  0.2140000D+00 0.5974000D-01 0.5974000D-01 0.5974000D-01 0.2314000D+01
EXPONENTS  0.2314000D+01 0.2314000D+01 0.2314000D+01 0.2314000D+01 0.2314000D+01
EXPONENTS  0.6450000D+00 0.6450000D+00 0.6450000D+00 0.6450000D+00 0.6450000D+00
EXPONENTS  0.6450000D+00 0.2140000D+00 0.2140000D+00 0.2140000D+00 0.2140000D+00
EXPONENTS  0.2140000D+00 0.2140000D+00 0.1428000D+01 0.1428000D+01 0.1428000D+01
EXPONENTS  0.1428000D+01 0.1428000D+01 0.1428000D+01 0.1428000D+01 0.1428000D+01
EXPONENTS  0.1428000D+01 0.1428000D+01 0.5000000D+00 0.5000000D+00 0.5000000D+00
EXPONENTS  0.5000000D+00 0.5000000D+00 0.5000000D+00 0.5000000D+00 0.5000000D+00
EXPONENTS  0.5000000D+00 0.5000000D+00 0.3387000D+02 0.5095000D+01 0.1159000D+01
EXPONENTS  0.3258000D+00 0.1027000D+00 0.2526000D-01 0.1407000D+01 0.1407000D+01
EXPONENTS  0.1407000D+01 0.3880000D+00 0.3880000D+00 0.3880000D+00 0.1020000D+00
EXPONENTS  0.1020000D+00 0.1020000D+00 0.1057000D+01 0.1057000D+01 0.1057000D+01
EXPONENTS  0.1057000D+01 0.1057000D+01 0.1057000D+01 0.2470000D+00 0.2470000D+00
EXPONENTS  0.2470000D+00 0.2470000D+00 0.2470000D+00 0.2470000D+00 0.3387000D+02
EXPONENTS  0.5095000D+01 0.1159000D+01 0.3258000D+00 0.1027000D+00 0.2526000D-01
EXPONENTS  0.1407000D+01 0.1407000D+01 0.1407000D+01 0.3880000D+00 0.3880000D+00
EXPONENTS  0.3880000D+00 0.1020000D+00 0.1020000D+00 0.1020000D+00 0.1057000D+01
EXPONENTS  0.1057000D+01 0.1057000D+01 0.1057000D+01 0.1057000D+01 0.1057000D+01
EXPONENTS  0.2470000D+00 0.2470000D+00 0.2470000D+00 0.2470000D+00 0.2470000D+00
EXPONENTS  0.2470000D+00
MO    1     MO 0.0        OCC NO =    2.0000000  ORB. ENERGY =    0.000000
 -0.17195986D+00 -0.32050490D+00 -0.54346110D+00 -0.82247059D+00 -0.10259672D+01
 -0.88043252D+00 -0.33715888D+00 -0.10774378D-02 -0.11560200D-01 -0.42613074D-01
 -0.12459813D+00 -0.15014680D+00  0.18086774D+00  0.90209252D-01  0.19319614D-01
 -0.27309830D-02 -0.24758310D+00 -0.24007232D+00 -0.16195137D+00 -0.48786309D-01
 -0.47306309D-01 -0.31912557D-01 -0.10084490D+01 -0.97785632D+00 -0.65965610D+00
 -0.55930853D-01 -0.70089811D-02 -0.22300348D+00 -0.92685456D-02  0.57085030D-03
 -0.25089168D-01 -0.30166221D-03  0.11332209D-04 -0.50348385D-03 -0.40186532D-01
  0.15003307D-01  0.25183225D-01  0.31919152D-03  0.97622772D-02  0.81874422D-02
 -0.76036607D-02 -0.35955320D-03  0.79632140D-02 -0.59760262D-04  0.25904716D-02
 -0.11843692D-02  0.40913344D-03 -0.84419468D-03  0.43506124D-03 -0.21654360D-04
  0.18317082D-03 -0.48904612D-03  0.14615310D-02  0.19894637D-03  0.73526391D-03
 -0.31558859D-02 -0.43959922D-03  0.15183766D-01 -0.12287071D-02 -0.15723989D-03
 -0.17389558D-01 -0.14103703D-03  0.64235002D-04 -0.10845754D-03 -0.48629501D-03
 -0.10631350D-03 -0.15950303D-03  0.46814621D-03 -0.86391506D-04  0.48487565D-03
  0.99073881D-03  0.73748019D-04  0.32362750D-01  0.58367552D-01  0.86062922D-01
  0.49206516D-01  0.45791526D-02  0.16525819D-04 -0.34445983D-02  0.32010314D-01
  0.12695756D-01 -0.18814919D-02  0.10083255D-01  0.21562115D-02 -0.29133328D-03
 -0.30315766D-04 -0.70158925D-03 -0.46406716D-02  0.62987575D-02 -0.16580859D-02
 -0.17190723D-02 -0.12855311D-02  0.12243322D-01 -0.45724184D-04  0.16882733D-03
 -0.12310315D-03 -0.18002440D-03 -0.11565016D-03 -0.31694015D-03  0.27928832D-01
  0.50370798D-01  0.74271713D-01  0.40723795D-01  0.42885049D-02  0.33731244D-04
 -0.31379160D-02 -0.26517388D-01  0.79464567D-02 -0.17222954D-02 -0.85685489D-02
  0.10038233D-02 -0.27349148D-03 -0.20733438D-04 -0.64429528D-03 -0.32764079D-02
  0.51576556D-02 -0.18812476D-02  0.16268603D-02 -0.11388649D-02 -0.77120415D-02
 -0.14539707D-03  0.20333976D-03 -0.57942683D-04  0.16444806D-03 -0.93196687D-04
  0.13090854D-03
MO    2     MO 0.0        OCC NO =    2.0000000  ORB. ENERGY =    0.000000
  0.45864579D+00  0.85484035D+00  0.14495019D+01  0.21936671D+01  0.27364267D+01
  0.23482613D+01  0.89925931D+00  0.16998566D-03  0.18238345D-02  0.67229975D-02
  0.19657650D-01  0.23688425D-01 -0.28535218D-01  0.36462328D-01 -0.24239217D-01
 -0.37983476D-02  0.37694565D+00  0.36551049D+00  0.24657121D+00  0.58018091D-01
  0.56258032D-01  0.37951336D-01 -0.58727905D+00 -0.56946313D+00 -0.38415646D+00
  0.85154812D-01  0.12303906D-01 -0.12653558D+00  0.14111375D-01  0.14445634D-02
 -0.16070774D-01  0.45928119D-03  0.11310023D-04 -0.32560133D-03 -0.16245153D-01
  0.15599482D-02  0.14685205D-01 -0.48596958D-03 -0.14863082D-01 -0.32339623D-02
 -0.15727974D-02 -0.28881725D-02  0.44609700D-02  0.90985093D-04 -0.39439970D-02
 -0.83607958D-03  0.30049176D-03 -0.55007520D-03  0.24958344D-03  0.32968797D-04
 -0.27887786D-03 -0.95336641D-04 -0.22251832D-02  0.41997462D-03 -0.16524173D-03
  0.48048412D-02 -0.49302230D-03  0.73272732D-02  0.18707085D-02 -0.76690157D-03
 -0.68315480D-02  0.21472910D-03 -0.97797892D-04 -0.50531192D-04 -0.33636100D-03
  0.16186247D-03 -0.75665210D-04 -0.12843802D-03  0.13153120D-03  0.22725878D-03
  0.11375210D-02 -0.11228147D-03  0.80053236D-02  0.14437931D-01  0.21288720D-01
  0.17452751D-01  0.31987580D-02  0.50945574D-04  0.52444064D-02  0.75734255D-02
 -0.21824611D-02  0.28645743D-02  0.39873126D-02 -0.10841937D-02  0.44355537D-03
  0.10900989D-03 -0.43973701D-03 -0.14445184D-03  0.17399250D-02 -0.15954732D-02
  0.26172902D-02  0.19572230D-02 -0.58399365D-03 -0.47509368D-04  0.13685126D-03
 -0.89341890D-04  0.27408743D-03  0.17607755D-03 -0.21232954D-03  0.10433821D-01
  0.18817826D-01  0.27746873D-01  0.22228493D-01  0.43165912D-02  0.58569278D-04
  0.47774820D-02 -0.83857016D-02 -0.32118446D-03  0.26221974D-02 -0.47949365D-02
  0.44805949D-04  0.41639121D-03 -0.17464041D-03 -0.35490948D-03 -0.84502087D-03
  0.20835027D-02 -0.12384819D-02 -0.24768974D-02  0.17339237D-02 -0.12341511D-02
 -0.11546253D-03  0.16419117D-03 -0.48728640D-04 -0.25037242D-03  0.14189210D-03
  0.22657067D-04
MO    3     MO 0.0        OCC NO =    2.0000000  ORB. ENERGY =    0.000000
 -0.11782770D+00 -0.21961146D+00 -0.37238209D+00 -0.56356069D+00 -0.70299754D+00
 -0.60327648D+00 -0.23102284D+00 -0.34485469D-03 -0.37000646D-02 -0.13639135D-01
 -0.39880030D-01 -0.48057375D-01  0.57890201D-01  0.21631197D-01  0.19786417D-01
  0.16802121D-02  0.17217884D+01  0.16695556D+01  0.11262723D+01  0.40638699D-01
  0.39405868D-01  0.26582966D-01  0.11008228D+00  0.10674278D+00  0.72008052D-01
  0.38896474D+00  0.88636905D-02  0.22711425D-01  0.64457043D-01  0.94239564D-03
  0.35884274D-02  0.20978754D-02  0.10669093D-04  0.71944122D-04 -0.75608653D-03
  0.36099627D-02 -0.28538762D-02 -0.22197810D-02 -0.67890643D-01 -0.37561742D-02
 -0.82570579D-03  0.15749451D-02 -0.74923933D-03  0.41559593D-03 -0.18015139D-01
 -0.77878189D-03 -0.73985275D-04  0.11461528D-03 -0.40630009D-04  0.15059278D-03
 -0.12738406D-02  0.23472818D-05 -0.10164051D-01  0.22649896D-03  0.44678568D-03
  0.21947248D-01 -0.61286960D-03 -0.33376588D-03  0.85449033D-02 -0.66627292D-04
 -0.10065912D-02  0.98082595D-03 -0.44671500D-03  0.82195153D-05  0.33969276D-04
  0.73934511D-03 -0.55652190D-04  0.92085250D-04  0.60079988D-03  0.30993644D-04
 -0.19399308D-03 -0.51287219D-03  0.74056169D-03  0.13356335D-02  0.19693908D-02
 -0.31715362D-02 -0.14502193D-02 -0.21786537D-04  0.23955066D-01  0.16603571D-02
  0.26051153D-02  0.13084621D-01 -0.71202248D-03  0.31640643D-03  0.20260440D-02
 -0.79616141D-04  0.64752368D-04 -0.18660373D-03 -0.14203982D-03  0.32864356D-03
  0.11955092D-01  0.89400791D-02  0.90573681D-03  0.25189796D-04 -0.35265379D-04
  0.10075583D-04  0.12519591D-02  0.80427586D-03 -0.26029349D-05  0.26655640D-02
  0.48074544D-02  0.70885887D-02  0.46279972D-03 -0.10625161D-02 -0.32388998D-04
  0.21822279D-01 -0.25020018D-02  0.36153854D-02  0.11977507D-01  0.44792587D-03
  0.80846874D-03  0.19019653D-02  0.11800263D-03  0.64894133D-04 -0.41104321D-03
 -0.49096433D-04  0.46013964D-03 -0.11313814D-01  0.79201063D-02 -0.15889671D-02
  0.26710200D-04 -0.53914270D-04  0.27204070D-04 -0.11436352D-02  0.64812573D-03
 -0.28886565D-04
MO    4     MO 0.0        OCC NO =    2.0000000  ORB. ENERGY =    0.000000
  0.57053878D-01  0.10633905D+00  0.18031280D+00  0.27288425D+00  0.34040159D+00
  0.29211521D+00  0.11186461D+00 -0.12222983D-02 -0.13114459D-01 -0.48342364D-01
 -0.14135024D+00 -0.17033391D+00  0.20518524D+00  0.13297619D+00  0.93794621D-01
  0.99313804D-02 -0.20973073D+00 -0.20336826D+00 -0.13719103D+00  0.58007392D+00
  0.56247658D+00  0.37944338D+00  0.10109563D+01  0.98028752D+00  0.66129617D+00
 -0.47379724D-01  0.12091946D+00  0.21615320D+00 -0.78515007D-02  0.11426479D-01
  0.29278200D-01 -0.25554182D-03  0.11342861D-03  0.58159513D-03  0.11706510D-01
  0.14378779D-01 -0.26085289D-01  0.27039112D-03  0.82697468D-02 -0.54116105D-01
 -0.66319489D-03  0.79994099D-02 -0.73362150D-02 -0.50623664D-04  0.21944208D-02
 -0.76609772D-02 -0.54729999D-03  0.93227809D-03 -0.38497810D-03 -0.18343678D-04
  0.15516629D-03  0.45521857D-03  0.12380811D-02  0.27912391D-02  0.24447387D-02
 -0.26733903D-02 -0.63583285D-02 -0.72517681D-02 -0.10408531D-02 -0.20153888D-02
 -0.82447914D-04 -0.11947423D-03  0.54414272D-04  0.11101125D-03  0.24831008D-03
 -0.90059493D-04 -0.46445537D-03 -0.12794347D-04 -0.73183323D-04  0.13142163D-03
 -0.73213589D-03  0.62472867D-04 -0.19741902D-01 -0.35605334D-01 -0.52500044D-01
 -0.55926248D-01 -0.11781506D-01 -0.95431349D-04 -0.29179622D-02 -0.11609413D-01
  0.56512229D-03 -0.15938352D-02 -0.10767136D-01 -0.25815663D-02 -0.24679206D-03
 -0.38440650D-03  0.54306706D-03  0.40473598D-02 -0.55476389D-02  0.15002791D-02
 -0.14562476D-02 -0.10889894D-02 -0.92184811D-02  0.17159988D-03 -0.22020244D-03
  0.48602560D-04 -0.15250091D-03 -0.97968695D-04 -0.61879606D-04  0.99826106D-02
  0.18004049D-01  0.26546960D-01  0.28699971D-03 -0.52951742D-02 -0.20387684D-03
 -0.26581678D-02 -0.55088022D-02  0.20790903D-01 -0.14589779D-02  0.45525052D-02
  0.60480743D-02 -0.23167804D-03  0.67862597D-03  0.64974282D-03 -0.14245037D-02
 -0.24185979D-02  0.38431016D-02  0.13781337D-02 -0.96474671D-03 -0.72411857D-02
  0.16972195D-03 -0.38230148D-03  0.21257953D-03  0.13930600D-03 -0.78948077D-04
 -0.39767091D-03
MO    5     MO 0.0        OCC NO =    2.0000000  ORB. ENERGY =    0.000000
 -0.46614517D-01 -0.86881795D-01 -0.14732029D+00 -0.22295360D+00 -0.27811704D+00
 -0.23866580D+00 -0.91396321D-01  0.49604900D-03  0.53222803D-02  0.19618927D-01
  0.57364592D-01  0.69127123D-01 -0.83270945D-01 -0.57662516D-01 -0.35895326D-01
 -0.41016315D-02  0.13269994D-01  0.12867430D-01  0.86802926D-02  0.13368321D+01
  0.12962775D+01  0.87446114D+00 -0.43801404D+00 -0.42472628D+00 -0.28651784D+00
  0.29977898D-02  0.28077763D+00 -0.96846718D-01  0.49677683D-03  0.27934366D-01
 -0.14455162D-01  0.16168534D-04  0.29856421D-03 -0.28743566D-03 -0.51944353D-02
 -0.55290549D-02  0.10723490D-01 -0.17108072D-04 -0.52323992D-03 -0.12331375D+00
 -0.53356462D-03 -0.25874450D-02  0.31210096D-02  0.32030391D-05 -0.13884446D-03
 -0.18381165D-01  0.47236103D-04 -0.26192795D-03  0.21469184D-03  0.11606335D-05
 -0.98176158D-05  0.47392491D-03 -0.78335346D-04  0.65089306D-02 -0.91993325D-03
  0.16914962D-03 -0.15169549D-01  0.38444345D-02  0.65856417D-04 -0.43572429D-02
 -0.10846347D-02  0.75593229D-05 -0.34428768D-05  0.99884209D-04 -0.13758531D-05
  0.56982061D-05 -0.94633425D-03  0.23244610D-03  0.46304243D-05  0.64668163D-03
 -0.22831854D-03 -0.39527568D-05 -0.31701314D-01 -0.57174626D-01 -0.84303953D-01
 -0.50096160D-01 -0.34672303D-02  0.17970772D-03  0.18462407D-03 -0.16819255D-01
 -0.30219316D-01  0.10084447D-03 -0.29241904D-02 -0.10828573D-01  0.15614923D-04
  0.59260129D-03 -0.41723528D-03  0.57005694D-02 -0.11559269D-02 -0.45446424D-02
  0.92139081D-04  0.68902077D-04 -0.18199893D-01 -0.59820376D-04  0.35792095D-03
 -0.29810057D-03  0.96489733D-05  0.61986338D-05 -0.52213109D-03  0.36612402D-01
  0.66031974D-01  0.97364108D-01  0.72866575D-01  0.11568065D-01 -0.54136227D-04
  0.16818647D-03 -0.18971420D-01  0.16883201D-01  0.92311834D-04 -0.98289955D-02
  0.81458375D-02  0.14658635D-04 -0.11314669D-04 -0.90276081D-04 -0.63066380D-02
  0.51891805D-02  0.11174575D-02 -0.87196690D-04  0.61041046D-04 -0.17106056D-01
 -0.21613909D-03  0.82964448D-04  0.13317465D-03 -0.88141104D-05  0.49951693D-05
 -0.73828205D-03
END DATA
 TOTAL ENERGY =    -76.464666781330 THE VIRIAL(-V/T)=   2.00691325
