 77
GAUSSIAN              5 MOL ORBITALS    126 PRIMITIVES        3 NUCLEI   B3LYP
  O    1    (CENTRE  1)   0.00000000  0.00000000  0.00815606  CHARGE =  8.0
  H    2    (CENTRE  2)   0.00000000 -1.44255835 -1.09730160  CHARGE =  1.0
  H    3    (CENTRE  3)   0.00000000  1.34807204 -1.09730160  CHARGE =  1.0
CENTRE ASSIGNMENTS    1  1  1  1  1  1  1  1  1  1  1  1  1  1  1  1  1  1  1  1
CENTRE ASSIGNMENTS    1  1  1  1  1  1  1  1  1  1  1  1  1  1  1  1  1  1  1  1
CENTRE ASSIGNMENTS    1  1  1  1  1  1  1  1  1  1  1  1  1  1  1  1  1  1  1  1
CENTRE ASSIGNMENTS    1  1  1  1  1  1  1  1  1  1  1  1  2  2  2  2  2  2  2  2
CENTRE ASSIGNMENTS    2  2  2  2  2  2  2  2  2  2  2  2  2  2  2  2  2  2  2  3
CENTRE ASSIGNMENTS    3  3  3  3  3  3  3  3  3  3  3  3  3  3  3  3  3  3  3  3
CENTRE ASSIGNMENTS    3  3  3  3  3  3
TYPE ASSIGNMENTS      1  1  1  1  1  1  1  1  1  1  1  1  1  1  1  1  2  2  2  3
TYPE ASSIGNMENTS      3  3  4  4  4  2  3  4  2  3  4  2  3  4  5  6  7  8  9 10
TYPE ASSIGNMENTS      5  6  7  8  9 10  5  6  7  8  9 10 11 12 13 17 14 15 18 19
TYPE ASSIGNMENTS     16 20 11 12 13 17 14 15 18 19 16 20  1  1  1  1  1  1  2  3
TYPE ASSIGNMENTS      4  2  3  4  2  3  4  5  6  7  8  9 10  5  6  7  8  9 10  1
TYPE ASSIGNMENTS      1  1  1  1  1  2  3  4  2  3  4  2  3  4  5  6  7  8  9 10
TYPE ASSIGNMENTS      5  6  7  8  9 10
EXPONENTS  0.1533000D+05 0.2299000D+04 0.5224000D+03 0.1473000D+03 0.4755000D+02
EXPONENTS  0.1676000D+02 0.6207000D+01 0.5224000D+03 0.1473000D+03 0.4755000D+02
EXPONENTS  0.1676000D+02 0.6207000D+01 0.6882000D+00 0.1752000D+01 0.2384000D+00
EXPONENTS  0.7376000D-01 0.3446000D+02 0.7749000D+01 0.2280000D+01 0.3446000D+02
EXPONENTS  0.7749000D+01 0.2280000D+01 0.3446000D+02 0.7749000D+01 0.2280000D+01
EXPONENTS  0.7156000D+00 0.7156000D+00 0.7156000D+00 0.2140000D+00 0.2140000D+00
EXPONENTS  0.2140000D+00 0.5974000D-01 0.5974000D-01 0.5974000D-01 0.2314000D+01
EXPONENTS  0.2314000D+01 0.2314000D+01 0.2314000D+01 0.2314000D+01 0.2314000D+01
EXPONENTS  0.6450000D+00 0.6450000D+00 0.6450000D+00 0.6450000D+00 0.6450000D+00
EXPONENTS  0.6450000D+00 0.2140000D+00 0.2140000D+00 0.2140000D+00 0.2140000D+00
EXPONENTS  0.2140000D+00 0.2140000D+00 0.1428000D+01 0.1428000D+01 0.1428000D+01
EXPONENTS  0.1428000D+01 0.1428000D+01 0.1428000D+01 0.1428000D+01 0.1428000D+01
EXPONENTS  0.1428000D+01 0.1428000D+01 0.5000000D+00 0.5000000D+00 0.5000000D+00
EXPONENTS  0.5000000D+00 0.5000000D+00 0.5000000D+00 0.5000000D+00 0.5000000D+00
EXPONENTS  0.5000000D+00 0.5000000D+00 0.3387000D+02 0.5095000D+01 0.1159000D+01
EXPONENTS  0.3258000D+00 0.1027000D+00 0.2526000D-01 0.1407000D+01 0.1407000D+01
EXPONENTS  0.1407000D+01 0.3880000D+00 0.3880000D+00 0.3880000D+00 0.1020000D+00
EXPONENTS  0.1020000D+00 0.1020000D+00 0.1057000D+01 0.1057000D+01 0.1057000D+01
EXPONENTS  0.1057000D+01 0.1057000D+01 0.1057000D+01 0.2470000D+00 0.2470000D+00
EXPONENTS  0.2470000D+00 0.2470000D+00 0.2470000D+00 0.2470000D+00 0.3387000D+02
EXPONENTS  0.5095000D+01 0.1159000D+01 0.3258000D+00 0.1027000D+00 0.2526000D-01
EXPONENTS  0.1407000D+01 0.1407000D+01 0.1407000D+01 0.3880000D+00 0.3880000D+00
EXPONENTS  0.3880000D+00 0.1020000D+00 0.1020000D+00 0.1020000D+00 0.1057000D+01
EXPONENTS  0.1057000D+01 0.1057000D+01 0.1057000D+01 0.1057000D+01 0.1057000D+01
EXPONENTS  0.2470000D+00 0.2470000D+00 0.2470000D+00 0.2470000D+00 0.2470000D+00
EXPONENTS  0.2470000D+00
MO    1     MO 0.0        OCC NO =    2.0000000  ORB. ENERGY =    0.000000
 -0.78215571D-01 -0.14578096D+00 -0.24719211D+00 -0.37409897D+00 -0.46665898D+00
 -0.40046283D+00 -0.15335599D+00 -0.91417012D-04 -0.98084455D-03 -0.36155777D-02
 -0.10571737D-01 -0.12739457D-01  0.15346026D-01  0.25077247D-03  0.57337287D-01
  0.90970256D-02  0.28536196D-01  0.27670511D-01  0.18666363D-01  0.14101586D+00
  0.13673795D+00  0.92242610D-01  0.15724415D+01  0.15247393D+01  0.10285801D+01
  0.64391100D-02  0.31628558D-01  0.33922044D+00  0.10501280D-02  0.42660419D-02
  0.39903076D-01  0.33108293D-04  0.53995626D-04  0.76234550D-03  0.43957858D-01
  0.72575514D-03 -0.44683613D-01  0.34616476D-04 -0.12189225D-02 -0.97205989D-02
  0.54863497D-02  0.68620616D-02 -0.12348411D-01 -0.10704350D-04 -0.30154092D-03
 -0.32682860D-02 -0.92854290D-03  0.14639144D-02 -0.53537146D-03 -0.25753215D-05
 -0.18636557D-04 -0.41163841D-03 -0.17278996D-03  0.92352080D-03  0.20913372D-02
  0.35069122D-03 -0.19207189D-02 -0.19028787D-01  0.16767867D-03 -0.84984352D-03
  0.12754776D-01 -0.12103528D-04 -0.45670541D-05 -0.13138523D-03  0.68637802D-03
  0.58105422D-05 -0.22776684D-03  0.72267643D-05  0.78906200D-05  0.62192253D-03
 -0.20663608D-02  0.96227013D-05 -0.31663154D-01 -0.57105802D-01 -0.84202471D-01
 -0.62851362D-01 -0.97007896D-02 -0.10011117D-03  0.39539991D-03 -0.28501524D-01
 -0.27341048D-02  0.21390950D-03 -0.13139887D-01 -0.59199721D-03  0.32877106D-04
 -0.17715982D-03  0.10476050D-02  0.45750088D-02 -0.77382627D-02  0.31632539D-02
  0.19636670D-03  0.14297003D-03 -0.91844657D-02  0.11727392D-03 -0.17776976D-03
  0.60495837D-04  0.20414409D-04  0.12243029D-04  0.42327540D-03 -0.26294826D-01
 -0.47423801D-01 -0.69926368D-01 -0.54098811D-01 -0.77349720D-02 -0.10885417D-03
  0.43404568D-03  0.28632376D-01  0.39347163D-03  0.23429514D-03  0.12277931D-01
  0.13807446D-02  0.35034757D-04  0.12724558D-03  0.11972593D-02  0.37360484D-02
 -0.76538826D-02  0.39178342D-02 -0.20816773D-03  0.16350871D-03  0.74947953D-02
 -0.37953127D-04 -0.14605905D-03  0.18401218D-03 -0.22161289D-04  0.15054005D-04
 -0.85963227D-03
MO    2     MO 0.0        OCC NO =    2.0000000  ORB. ENERGY =    0.000000
  0.46238549D+00  0.86181052D+00  0.14613208D+01  0.22115537D+01  0.27587389D+01
  0.23674084D+01  0.90659166D+00 -0.14293307D-03 -0.15335780D-02 -0.56530574D-02
 -0.16529208D-01 -0.19918500D-01  0.23993944D-01  0.68937385D-01  0.21369345D-01
  0.25168436D-02 -0.59845636D-01 -0.58030136D-01 -0.39146787D-01 -0.35395962D+00
 -0.34322177D+00 -0.23153538D+00  0.29098162D+00  0.28215429D+00  0.19033962D+00
 -0.13503994D-01 -0.70926223D-01  0.61929301D-01 -0.22023110D-02 -0.59046209D-02
  0.71974022D-02 -0.69434161D-04 -0.43946698D-04  0.13103911D-03  0.32092429D-02
  0.49480633D-02 -0.81573062D-02 -0.72597097D-04  0.25563039D-02  0.32563857D-01
  0.36832893D-03  0.17747298D-02 -0.21430587D-02  0.22448985D-04  0.63238661D-03
  0.31728440D-02 -0.19260875D-03  0.25881486D-03 -0.66206115D-04  0.54009213D-05
  0.39084278D-04 -0.48379153D-03  0.36237224D-03 -0.16490076D-02  0.11558671D-02
 -0.73546380D-03  0.27919980D-02 -0.13332280D-02 -0.35165292D-03  0.21550247D-02
 -0.21343732D-02  0.25383318D-04  0.95779498D-05 -0.33475040D-04 -0.16950578D-04
 -0.12185772D-04  0.15737414D-03 -0.24327597D-03 -0.16548077D-04 -0.56949019D-04
  0.29412770D-03 -0.20180569D-04  0.57758682D-02  0.10417016D-01  0.15359884D-01
  0.71723441D-02  0.53490390D-04 -0.51630969D-04 -0.82922611D-03  0.16850917D-02
  0.81815441D-02 -0.44860745D-03 -0.77973997D-03  0.27619322D-02 -0.68949319D-04
 -0.13829490D-03  0.21845362D-03 -0.36945499D-03 -0.11564920D-02  0.15259470D-02
 -0.41181698D-03 -0.29983437D-03  0.20029798D-02  0.94014747D-05 -0.66028748D-04
  0.56627273D-04 -0.42812759D-04 -0.25675876D-04  0.20078347D-03 -0.12760863D-01
 -0.23014742D-01 -0.33935224D-01 -0.29404315D-01 -0.44804639D-02 -0.13042001D-04
 -0.91027338D-03  0.10360171D-01 -0.73177933D-02 -0.49135988D-03  0.54773292D-02
 -0.35706641D-02 -0.73474310D-04  0.92734268D-04  0.88231542D-04  0.38245998D-02
 -0.32164459D-02 -0.60815389D-03  0.43656591D-03 -0.34290776D-03  0.10664269D-01
  0.27268824D-04 -0.10829437D-04 -0.16439388D-04  0.46476286D-04 -0.31571009D-04
  0.32834499D-04
MO    3     MO 0.0        OCC NO =    2.0000000  ORB. ENERGY =    0.000000
  0.11525524D+00  0.21481681D+00  0.36425209D+00  0.55125681D+00  0.68764942D+00
  0.59010551D+00  0.22597906D+00  0.11842021D-03  0.12705712D-02  0.46835645D-02
  0.13694468D-01  0.16502500D-01 -0.19879010D-01  0.19699367D-02 -0.10697919D-01
 -0.91023494D-03 -0.75682925D+00 -0.73386979D+00 -0.49506423D+00  0.12990387D+01
  0.12596306D+01  0.84973934D+00 -0.97444432D-01 -0.94488320D-01 -0.63741263D-01
 -0.17077633D+00  0.26517373D+00 -0.18072839D-01 -0.27851210D-01  0.23754381D-01
 -0.11434428D-02 -0.87808917D-03  0.21947301D-03 -0.19533391D-04 -0.18592664D-02
 -0.14306585D-02  0.32899249D-02 -0.91808878D-03  0.32327931D-01 -0.12334105D+00
  0.55416379D-03 -0.12195454D-02  0.66538161D-03  0.28389787D-03  0.79973866D-02
 -0.14082760D-01  0.21133435D-03 -0.17211521D-03 -0.39219141D-04  0.68301977D-04
  0.49427372D-03  0.12697152D-02  0.45826886D-02  0.58961107D-02 -0.67289660D-04
 -0.93009375D-02 -0.12198003D-01  0.74569851D-03 -0.44471282D-02 -0.54903288D-02
 -0.54382953D-03  0.32100649D-03  0.12112617D-03  0.10152875D-03 -0.12903820D-03
 -0.15410562D-03 -0.57020002D-03 -0.25877764D-03 -0.20927288D-03  0.26561377D-03
  0.64589223D-03 -0.25521067D-03 -0.33083033D-01 -0.59666613D-01 -0.87978385D-01
 -0.60005535D-01 -0.72024907D-02  0.10684477D-03 -0.10486689D-01 -0.18924246D-01
 -0.25770717D-01 -0.56732498D-02 -0.67953971D-02 -0.10282094D-01 -0.87195768D-03
  0.15701477D-03 -0.26617420D-03  0.66325537D-02 -0.32731238D-02 -0.33594299D-02
 -0.52079843D-02 -0.37918124D-02 -0.20073271D-01  0.89257711D-04  0.72090295D-04
 -0.16134801D-03 -0.54142542D-03 -0.32470629D-03 -0.61489289D-03  0.34189991D-01
  0.61663056D-01  0.90922141D-01  0.66447402D-01  0.79024614D-02 -0.84300167D-04
 -0.11511642D-01 -0.20120920D-01  0.27634019D-01 -0.62139123D-02 -0.73258870D-02
  0.10473384D-01 -0.92918233D-03  0.24987071D-03  0.82766807D-04 -0.66716354D-02
  0.28421207D-02  0.38295147D-02  0.55209682D-02 -0.43365338D-02 -0.19911715D-01
  0.26528738D-04 -0.17841329D-03  0.15188456D-03  0.58775569D-03 -0.39925824D-03
 -0.19198487D-03
MO    4     MO 0.0        OCC NO =    2.0000000  ORB. ENERGY =    0.000000
 -0.15291980D+00 -0.28501736D+00 -0.48328698D+00 -0.73140346D+00 -0.91236816D+00
 -0.78294762D+00 -0.29982734D+00 -0.12479109D-02 -0.13389265D-01 -0.49355351D-01
 -0.14431215D+00 -0.17390316D+00  0.20948478D+00  0.11070767D+00  0.64826821D-01
  0.47847322D-02 -0.11545193D+01 -0.11194954D+01 -0.75520498D+00 -0.32926387D+00
 -0.31927520D+00 -0.21538116D+00  0.17062811D+00  0.16545187D+00  0.11161286D+00
 -0.26051394D+00 -0.68753455D-01  0.34385610D-01 -0.42486149D-01 -0.65779947D-02
  0.74528004D-02 -0.13394975D-02 -0.62939285D-04  0.13228970D-03 -0.10914989D-01
  0.15213510D-01 -0.42985211D-02 -0.14005157D-02  0.49315247D-01  0.30294571D-01
 -0.32713162D-02  0.38978406D-02 -0.62652443D-03  0.43307731D-03  0.12199763D-01
  0.46224566D-02 -0.70724920D-04  0.90311526D-04 -0.19586605D-04  0.10419253D-03
  0.75399909D-03 -0.18240100D-03  0.69907480D-02 -0.16617352D-02  0.14759490D-02
 -0.14188289D-01  0.35552149D-02  0.19958268D-02 -0.67839549D-02  0.14299908D-02
 -0.64236738D-02  0.48968535D-03  0.18477418D-03 -0.32393677D-05 -0.15109215D-03
 -0.23508331D-03  0.27375140D-03  0.81957969D-04 -0.31923923D-03 -0.26403330D-03
  0.37131848D-03 -0.38931589D-03  0.19496305D-01  0.35162388D-01  0.51846921D-01
  0.19525866D-01 -0.12659870D-02 -0.10331834D-03 -0.15997116D-01  0.16535783D-01
  0.18829661D-01 -0.86543649D-02  0.13295789D-02  0.47590447D-02 -0.13301441D-02
 -0.38419701D-03  0.12597077D-03 -0.30754597D-02  0.11376257D-02  0.19378340D-02
 -0.79446171D-02 -0.57842912D-02  0.98438536D-02  0.55354029D-04 -0.15341000D-03
  0.98055975D-04 -0.82592752D-03 -0.49532928D-03  0.90966260D-04  0.33520640D-02
  0.60455855D-02  0.89142123D-02 -0.11530136D-01 -0.49779343D-02 -0.48757716D-04
 -0.17560649D-01 -0.80358148D-02  0.72395461D-02 -0.94791286D-02  0.19140209D-02
 -0.31128176D-03 -0.14174385D-02  0.23849119D-03  0.40487651D-04 -0.11937061D-03
 -0.18199153D-03  0.30136214D-03  0.84220641D-02 -0.66152465D-02 -0.10377339D-02
  0.84830891D-04 -0.70665340D-04 -0.14165550D-04  0.89660291D-03 -0.60905595D-03
  0.17249020D-03
MO    5     MO 0.0        OCC NO =    2.0000000  ORB. ENERGY =    0.000000
 -0.52225906D-01 -0.97340502D-01 -0.16505450D+00 -0.24979243D+00 -0.31159637D+00
 -0.26739605D+00 -0.10239848D+00 -0.11928252D-02 -0.12798231D-01 -0.47176690D-01
 -0.13794188D+00 -0.16622667D+00  0.20023764D+00  0.11727637D+00  0.58355371D-01
  0.41542286D-02  0.11376844D+01  0.11031712D+01  0.74419274D+00  0.50787546D+00
  0.49246836D+00  0.33221625D+00  0.84194826D-01  0.81640660D-01  0.55074307D-01
  0.25671519D+00  0.10210816D+00  0.17620824D-01  0.41866625D-01  0.87093453D-02
  0.61801520D-02  0.13199653D-02  0.78464754D-04  0.10902431D-03 -0.13247122D-01
  0.14728986D-01 -0.14818636D-02  0.13800937D-02 -0.48596143D-01 -0.49351343D-01
 -0.30693109D-02  0.30654700D-02  0.38408491D-05 -0.42676227D-03 -0.12021869D-01
 -0.44286305D-02  0.81974423D-04 -0.45953897D-04 -0.36020525D-04 -0.10267321D-03
 -0.74300444D-03  0.64443701D-03 -0.68888104D-02  0.21260764D-02  0.14613716D-02
  0.13981398D-01 -0.43116902D-02  0.29285876D-02  0.66850327D-02 -0.20665391D-02
 -0.73127025D-02 -0.48254486D-03 -0.18207984D-03  0.65787942D-04 -0.25727674D-03
  0.23165537D-03 -0.87524287D-04 -0.10195592D-03  0.31458416D-03 -0.10983954D-03
  0.87378613D-03  0.38363897D-03 -0.11252156D-02 -0.20293728D-02 -0.29923089D-02
 -0.18149306D-01 -0.58299449D-02 -0.33975044D-04  0.15763849D-01  0.49949078D-02
  0.24636232D-02  0.85281688D-02 -0.28827260D-02 -0.18504235D-02  0.13107483D-02
 -0.28826130D-03 -0.64019428D-04  0.11570602D-02 -0.88968035D-03 -0.26737989D-03
  0.78287704D-02  0.56999459D-02 -0.30282215D-02  0.11310363D-03 -0.10673736D-03
 -0.63662625D-05  0.81388403D-03  0.48810650D-03 -0.31679197D-03  0.26134384D-01
  0.47134437D-01  0.69499701D-01  0.32312676D-01  0.16373879D-03 -0.10351446D-03
  0.17304584D-01 -0.21713098D-01  0.25335026D-01  0.93409060D-02 -0.29509438D-02
  0.64289295D-02  0.13967698D-02  0.40992985D-03  0.70757026D-04 -0.44518775D-02
  0.17287833D-02  0.27230942D-02 -0.82992554D-02  0.65187844D-02 -0.13926108D-01
  0.10612046D-03 -0.18730417D-03  0.81183711D-04 -0.88352884D-03  0.60017483D-03
  0.70616368D-04
END DATA
 TOTAL ENERGY =    -76.464424752151 THE VIRIAL(-V/T)=   2.00483478
