 80
GAUSSIAN              5 MOL ORBITALS    126 PRIMITIVES        3 NUCLEI   B3LYP
  O    1    (CENTRE  1)   0.09448631  0.00000000  0.00815606  CHARGE =  8.0
  H    2    (CENTRE  2)   0.00000000 -1.44255835 -1.09730160  CHARGE =  1.0
  H    3    (CENTRE  3)   0.00000000  1.44255835 -1.00281530  CHARGE =  1.0
CENTRE ASSIGNMENTS    1  1  1  1  1  1  1  1  1  1  1  1  1  1  1  1  1  1  1  1
CENTRE ASSIGNMENTS    1  1  1  1  1  1  1  1  1  1  1  1  1  1  1  1  1  1  1  1
CENTRE ASSIGNMENTS    1  1  1  1  1  1  1  1  1  1  1  1  1  1  1  1  1  1  1  1
CENTRE ASSIGNMENTS    1  1  1  1  1  1  1  1  1  1  1  1  2  2  2  2  2  2  2  2
CENTRE ASSIGNMENTS    2  2  2  2  2  2  2  2  2  2  2  2  2  2  2  2  2  2  2  3
CENTRE ASSIGNMENTS    3  3  3  3  3  3  3  3  3  3  3  3  3  3  3  3  3  3  3  3
CENTRE ASSIGNMENTS    3  3  3  3  3  3
TYPE ASSIGNMENTS      1  1  1  1  1  1  1  1  1  1  1  1  1  1  1  1  2  2  2  3
TYPE ASSIGNMENTS      3  3  4  4  4  2  3  4  2  3  4  2  3  4  5  6  7  8  9 10
TYPE ASSIGNMENTS      5  6  7  8  9 10  5  6  7  8  9 10 11 12 13 17 14 15 18 19
TYPE ASSIGNMENTS     16 20 11 12 13 17 14 15 18 19 16 20  1  1  1  1  1  1  2  3
TYPE ASSIGNMENTS      4  2  3  4  2  3  4  5  6  7  8  9 10  5  6  7  8  9 10  1
TYPE ASSIGNMENTS      1  1  1  1  1  2  3  4  2  3  4  2  3  4  5  6  7  8  9 10
TYPE ASSIGNMENTS      5  6  7  8  9 10
EXPONENTS  0.1533000D+05 0.2299000D+04 0.5224000D+03 0.1473000D+03 0.4755000D+02
EXPONENTS  0.1676000D+02 0.6207000D+01 0.5224000D+03 0.1473000D+03 0.4755000D+02
EXPONENTS  0.1676000D+02 0.6207000D+01 0.6882000D+00 0.1752000D+01 0.2384000D+00
EXPONENTS  0.7376000D-01 0.3446000D+02 0.7749000D+01 0.2280000D+01 0.3446000D+02
EXPONENTS  0.7749000D+01 0.2280000D+01 0.3446000D+02 0.7749000D+01 0.2280000D+01
EXPONENTS  0.7156000D+00 0.7156000D+00 0.7156000D+00 0.2140000D+00 0.2140000D+00
EXPONENTS  0.2140000D+00 0.5974000D-01 0.5974000D-01 0.5974000D-01 0.2314000D+01
EXPONENTS  0.2314000D+01 0.2314000D+01 0.2314000D+01 0.2314000D+01 0.2314000D+01
EXPONENTS  0.6450000D+00 0.6450000D+00 0.6450000D+00 0.6450000D+00 0.6450000D+00
EXPONENTS  0.6450000D+00 0.2140000D+00 0.2140000D+00 0.2140000D+00 0.2140000D+00
EXPONENTS  0.2140000D+00 0.2140000D+00 0.1428000D+01 0.1428000D+01 0.1428000D+01
EXPONENTS  0.1428000D+01 0.1428000D+01 0.1428000D+01 0.1428000D+01 0.1428000D+01
EXPONENTS  0.1428000D+01 0.1428000D+01 0.5000000D+00 0.5000000D+00 0.5000000D+00
EXPONENTS  0.5000000D+00 0.5000000D+00 0.5000000D+00 0.5000000D+00 0.5000000D+00
EXPONENTS  0.5000000D+00 0.5000000D+00 0.3387000D+02 0.5095000D+01 0.1159000D+01
EXPONENTS  0.3258000D+00 0.1027000D+00 0.2526000D-01 0.1407000D+01 0.1407000D+01
EXPONENTS  0.1407000D+01 0.3880000D+00 0.3880000D+00 0.3880000D+00 0.1020000D+00
EXPONENTS  0.1020000D+00 0.1020000D+00 0.1057000D+01 0.1057000D+01 0.1057000D+01
EXPONENTS  0.1057000D+01 0.1057000D+01 0.1057000D+01 0.2470000D+00 0.2470000D+00
EXPONENTS  0.2470000D+00 0.2470000D+00 0.2470000D+00 0.2470000D+00 0.3387000D+02
EXPONENTS  0.5095000D+01 0.1159000D+01 0.3258000D+00 0.1027000D+00 0.2526000D-01
EXPONENTS  0.1407000D+01 0.1407000D+01 0.1407000D+01 0.3880000D+00 0.3880000D+00
EXPONENTS  0.3880000D+00 0.1020000D+00 0.1020000D+00 0.1020000D+00 0.1057000D+01
EXPONENTS  0.1057000D+01 0.1057000D+01 0.1057000D+01 0.1057000D+01 0.1057000D+01
EXPONENTS  0.2470000D+00 0.2470000D+00 0.2470000D+00 0.2470000D+00 0.2470000D+00
EXPONENTS  0.2470000D+00
MO    1     MO 0.0        OCC NO =    2.0000000  ORB. ENERGY =    0.000000
  0.64005765D-01  0.11929622D+00  0.20228351D+00  0.30613458D+00  0.38187876D+00
  0.32770879D+00  0.12549506D+00 -0.18441372D-04 -0.19786382D-03 -0.72936330D-03
 -0.21326155D-02 -0.25699054D-02  0.30957234D-02  0.92367556D-02  0.44652727D-01
  0.73946771D-02 -0.58658188D+00 -0.56878711D+00 -0.38370043D+00 -0.72678869D+00
 -0.70474055D+00 -0.47541381D+00  0.12942179D+01  0.12549560D+01  0.84658593D+00
 -0.13352087D+00 -0.14704345D+00  0.28029503D+00 -0.22905572D-01 -0.12220468D-01
  0.34062337D-01 -0.76172916D-03 -0.11173137D-03  0.71640778D-03  0.36193848D-01
 -0.32122577D-02 -0.32981590D-01  0.45957224D-02  0.16718169D-01  0.67466324D-01
  0.46868959D-02  0.52071460D-02 -0.98940419D-02  0.58855417D-03  0.47106523D-02
  0.72498813D-02 -0.74273968D-03  0.12918175D-02 -0.54907782D-03 -0.63310778D-04
  0.50520504D-03 -0.94445411D-03  0.28804361D-02 -0.35177279D-02  0.12805170D-02
 -0.81498850D-02  0.66337751D-02 -0.15413051D-01 -0.49142337D-03  0.39194087D-02
  0.11571500D-01 -0.76254614D-03  0.11404740D-03 -0.10207218D-03  0.53564323D-03
 -0.28307573D-03  0.21250839D-03 -0.39094937D-04 -0.59066465D-04  0.93708151D-04
 -0.15678347D-02 -0.18255676D-03 -0.44789289D-02 -0.80779327D-02 -0.11910907D-01
 -0.11645488D-01 -0.32169740D-02 -0.14169765D-03 -0.84675171D-02 -0.10988764D-01
  0.13684008D-01 -0.47479185D-02 -0.63449884D-02  0.59842809D-02 -0.72758548D-03
 -0.30562293D-03  0.10313640D-02 -0.56474923D-03 -0.40952637D-02  0.46600129D-02
 -0.44131026D-02 -0.27080607D-02  0.41522980D-02  0.70163615D-04 -0.28963976D-03
  0.21947615D-03 -0.44469850D-03 -0.29895714D-03  0.72059506D-03 -0.41249914D-01
 -0.74395919D-01 -0.10969674D+00 -0.81637501D-01 -0.10970789D-01 -0.38523144D-04
 -0.11681317D-01  0.35843952D-01 -0.12862853D-01 -0.60695465D-02  0.14868699D-01
 -0.39667794D-02 -0.77747859D-03  0.44857749D-05  0.92363845D-03  0.68426491D-02
 -0.93970723D-02  0.25544232D-02  0.69059542D-02 -0.44830462D-02  0.17166306D-01
 -0.19573376D-04 -0.69220681D-04  0.88794057D-04  0.52498994D-03 -0.31720070D-03
 -0.46789497D-03
MO    2     MO 0.0        OCC NO =    2.0000000  ORB. ENERGY =    0.000000
  0.12372322D-01  0.23059974D-01  0.39101427D-01  0.59175851D-01  0.73817210D-01
  0.63346149D-01  0.24258210D-01  0.11851431D-03  0.12715808D-02  0.46872863D-02
  0.13705350D-01  0.16515613D-01 -0.19894806D-01 -0.10316198D-01  0.23903784D-01
  0.49351399D-02  0.71486662D+00  0.69318016D+00  0.46761524D+00  0.10236272D+01
  0.99257407D+00  0.66958460D+00  0.90411904D+00  0.87669134D+00  0.59141080D+00
  0.16078223D+00  0.21022598D+00  0.19681950D+00  0.25536316D-01  0.18818249D-01
  0.23357437D-01  0.78613317D-03  0.16484364D-03  0.44055632D-03  0.24490163D-01
 -0.14261317D-03 -0.24347550D-01 -0.67740155D-02 -0.35081681D-01 -0.94347454D-01
  0.33235875D-02  0.35129039D-02 -0.68364914D-02 -0.98301442D-03 -0.84501663D-02
 -0.11573736D-01 -0.48353452D-03  0.81813480D-03 -0.33460028D-03  0.44742788D-04
 -0.39879069D-03  0.92038204D-03 -0.47636499D-02  0.49958313D-02 -0.28315529D-04
  0.91637789D-02 -0.10200586D-01 -0.99512543D-02  0.51271708D-02 -0.47869078D-02
  0.10036201D-01  0.95505080D-03 -0.11404700D-03  0.64918764D-04  0.33769957D-03
  0.44495910D-04 -0.53588313D-03 -0.83259309D-04  0.29764508D-03  0.34112684D-03
 -0.92983940D-03  0.31683196D-03 -0.45430040D-01 -0.81934947D-01 -0.12081303D+00
 -0.84995440D-01 -0.11355324D-01  0.13701163D-04  0.69323167D-02 -0.33263161D-01
 -0.21947462D-01  0.40893685D-02 -0.13523079D-01 -0.83533261D-02  0.78159093D-03
 -0.10623908D-04  0.43953444D-03  0.79470823D-02 -0.74563240D-02 -0.49075828D-03
  0.25506841D-02  0.18335434D-02 -0.21124357D-01  0.13943810D-03 -0.69896742D-04
 -0.69541359D-04  0.44550017D-03  0.25577842D-03 -0.20308036D-03  0.86220117D-02
  0.15550153D-01  0.22928692D-01  0.15613551D-01  0.91098044D-03 -0.13131891D-03
  0.11120989D-01  0.15866882D-02  0.18947071D-01  0.58489030D-02  0.17567970D-02
  0.80928720D-02  0.84588024D-03  0.24748029D-03  0.76925246D-03 -0.24093292D-02
 -0.15437217D-02  0.39530510D-02 -0.57147492D-02  0.44876538D-02 -0.10463651D-01
  0.80807317D-04 -0.26627893D-03  0.18547162D-03 -0.57363293D-03  0.32679186D-03
 -0.70813194D-03
MO    3     MO 0.0        OCC NO =    2.0000000  ORB. ENERGY =    0.000000
  0.16216956D-01  0.30225739D-01  0.51251988D-01  0.77564433D-01  0.96755517D-01
  0.83030628D-01  0.31796320D-01 -0.26050985D-03 -0.27950997D-02 -0.10303264D-01
 -0.30126139D-01 -0.36303463D-01  0.43731368D-01  0.28514640D-01  0.21407494D-01
  0.21865414D-02  0.15230209D+01  0.14768180D+01  0.99625267D+00 -0.73897653D+00
 -0.71655866D+00 -0.48338624D+00  0.69270940D-01  0.67169511D-01  0.45312155D-01
  0.34347727D+00 -0.15079885D+00  0.12551110D-01  0.55970851D-01 -0.13036574D-01
  0.57816485D-03  0.17729805D-02 -0.11170919D-03 -0.43372081D-04 -0.28769279D-02
  0.13923298D-02  0.14845981D-02  0.96393374D-02 -0.62585117D-01  0.68214034D-01
 -0.16392455D-02  0.16413029D-02 -0.20573206D-05  0.82223728D-03 -0.15551875D-01
  0.80633302D-02 -0.27190960D-03  0.27251933D-03 -0.60973548D-06 -0.14373225D-03
 -0.95423284D-03 -0.78183928D-03 -0.90478081D-02 -0.35233411D-02 -0.17087444D-04
  0.19759010D-01  0.69424751D-02  0.24472293D-02  0.73844140D-02  0.36275482D-02
 -0.23959670D-02 -0.32994122D-03 -0.23773319D-03 -0.72509803D-04  0.22348671D-04
  0.29003358D-03  0.36708639D-03  0.21229773D-03  0.42316599D-03 -0.14955698D-03
 -0.27934375D-03  0.27587537D-03  0.18102112D-01  0.32647904D-01  0.48139316D-01
  0.29579307D-01  0.25615359D-02 -0.83397497D-04  0.22182050D-01  0.10382258D-01
  0.14609842D-01  0.11844947D-01  0.24847504D-02  0.50547078D-02  0.17732131D-02
 -0.18876426D-03  0.89117835D-04 -0.27450660D-02  0.11650619D-02  0.15800040D-02
  0.11194681D-01  0.85698324D-02  0.99078725D-02  0.70222624D-04 -0.12443953D-03
  0.54216907D-04  0.11242459D-02  0.69249841D-03  0.26809559D-03 -0.20348466D-01
 -0.36699297D-01 -0.54113092D-01 -0.42821398D-01 -0.59174151D-02  0.22592478D-04
  0.21129735D-01  0.13598925D-01 -0.14089736D-01  0.11627404D-01  0.61908075D-02
 -0.61962859D-02  0.18406643D-02 -0.33635353D-04 -0.99893957D-04  0.48572777D-02
 -0.36402700D-02 -0.12170077D-02 -0.10178001D-01  0.67409338D-02  0.12582049D-01
  0.67483365D-04  0.46950380D-04 -0.11443375D-03 -0.11970206D-02  0.69361960D-03
  0.23794579D-03
MO    4     MO 0.0        OCC NO =    2.0000000  ORB. ENERGY =    0.000000
  0.22992298D+00  0.42853863D+00  0.72664747D+00  0.10997037D+01  0.13717936D+01
  0.11772030D+01  0.45080622D+00 -0.12871905D-02 -0.13810710D-01 -0.50908876D-01
 -0.14885457D+00 -0.17937699D+00  0.21607859D+00  0.15997603D+00  0.66800765D-01
  0.48790743D-02 -0.13580449D+00 -0.13168467D+00 -0.88833703D-01  0.22975851D+00
  0.22278847D+00  0.15029179D+00  0.13371433D+00  0.12965792D+00  0.87466469D-01
 -0.30890358D-01  0.46166078D-01  0.27372833D-01 -0.47903798D-02  0.36457227D-02
  0.72367819D-02 -0.16005672D-03  0.32103839D-04  0.14037029D-03 -0.15055651D-01
  0.20237876D-01 -0.51822243D-02 -0.24879342D-02  0.79767165D-02 -0.21657443D-01
 -0.34084578D-02  0.40275390D-02 -0.61908122D-03 -0.20209531D-03  0.20432647D-02
 -0.16427981D-02  0.36400800D-04 -0.21940530D-04 -0.14460270D-04  0.36195829D-04
  0.87475916D-04  0.32463064D-03  0.12029362D-02  0.12875104D-02  0.21555795D-02
 -0.28305190D-02 -0.22109592D-02  0.33218746D-02 -0.77828945D-03 -0.16515719D-02
 -0.97886131D-02  0.15588533D-03  0.78432211D-05  0.71801803D-05 -0.33584881D-03
  0.76810810D-04  0.55160363D-05 -0.19234421D-03 -0.10034047D-03 -0.27056577D-04
  0.11998906D-02 -0.49658306D-04  0.69099553D-02  0.12462389D-01  0.18375785D-01
 -0.51618221D-02 -0.46083814D-02 -0.62087651D-04 -0.12508143D-02  0.95285037D-02
  0.90398967D-02 -0.10689734D-02 -0.18661562D-02  0.36557953D-03 -0.17112819D-03
 -0.37214766D-03 -0.96523905D-05  0.29689423D-03 -0.94807458D-03  0.65118034D-03
 -0.98239875D-03 -0.69606102D-03  0.15368004D-03  0.98694930D-04 -0.13073395D-03
  0.32039022D-04 -0.12375779D-03 -0.78993750D-04 -0.20572895D-03  0.19880639D-01
  0.35855551D-01  0.52868989D-01  0.17815248D-01 -0.20921582D-02 -0.99090355D-04
 -0.47791327D-03 -0.18791380D-01  0.18421273D-01 -0.84218398D-03 -0.87449859D-03
  0.38057887D-02 -0.17616221D-03  0.45454722D-03  0.53295222D-04 -0.21872626D-02
  0.85778448D-03  0.13294781D-02  0.38905969D-03 -0.10813097D-03 -0.77861164D-02
  0.12195826D-03 -0.19291185D-03  0.70953589D-04  0.12884881D-03 -0.80074893D-04
  0.97277572D-04
MO    5     MO 0.0        OCC NO =    2.0000000  ORB. ENERGY =    0.000000
  0.44930753D+00  0.83743535D+00  0.14199893D+01  0.21490028D+01  0.26807117D+01
  0.23004494D+01  0.88094992D+00  0.11297204D-02  0.12121159D-01  0.44680874D-01
  0.13064425D+00  0.15743268D+00 -0.18964435D+00 -0.63704852D-01 -0.61729816D-01
 -0.51264063D-02  0.72491035D-01  0.70291920D-01  0.47418514D-01 -0.15227386D-01
 -0.14765443D-01 -0.99606803D-02 -0.34636348D+00 -0.33585606D+00 -0.22656651D+00
  0.16827606D-01 -0.17831873D-02 -0.72938761D-01  0.27261994D-02  0.31163623D-03
 -0.12169477D-01  0.99184301D-04  0.11747129D-04 -0.24667095D-03  0.26429141D-02
 -0.12413402D-01  0.97704876D-02  0.38903716D-03 -0.30315391D-02  0.63830797D-03
  0.21553284D-02 -0.44824532D-02  0.23271249D-02 -0.33158040D-04 -0.10461829D-02
 -0.89861806D-03  0.15017546D-03 -0.27054796D-03  0.12037250D-03 -0.13086607D-04
 -0.73612979D-04 -0.12001367D-03 -0.48449290D-03 -0.10988416D-03 -0.11372049D-02
  0.15199023D-02 -0.29644367D-03  0.15891963D-02 -0.66423633D-04  0.62609614D-03
  0.18224183D-02  0.18122181D-03 -0.36505080D-04 -0.39957280D-05 -0.28775090D-04
  0.47714683D-04 -0.42497999D-04 -0.21183471D-03  0.61800556D-04  0.54485183D-04
  0.29815998D-03  0.39391136D-04 -0.59197272D-02 -0.10676472D-01 -0.15742451D-01
  0.37340021D-02  0.39778609D-02  0.83985059D-04  0.47396339D-03 -0.71722977D-02
 -0.10907688D-01  0.58477197D-03  0.17220245D-02 -0.21089447D-02  0.99661243D-04
  0.32813046D-03 -0.22206865D-03  0.12701184D-02  0.24669328D-03 -0.15168117D-02
  0.27446163D-03  0.46587682D-04 -0.48928128D-02 -0.85198537D-04  0.16246648D-03
 -0.77267944D-04  0.71471223D-04  0.49017504D-04 -0.23651460D-04 -0.77299732D-02
 -0.13941325D-01 -0.20556476D-01  0.32383942D-03  0.33698546D-02  0.75192156D-04
  0.36575339D-03  0.97748256D-02 -0.12726091D-01  0.56892003D-03 -0.73712385D-03
 -0.29771659D-02  0.10162000D-03 -0.24897122D-03 -0.28379052D-03  0.20074604D-02
 -0.63347645D-03 -0.13739839D-02 -0.11629869D-03 -0.92871524D-04  0.71995545D-02
 -0.70229723D-04  0.13698192D-03 -0.66752194D-04 -0.76160647D-04  0.49985581D-04
  0.91999389D-04
END DATA
 TOTAL ENERGY =    -76.465323294674 THE VIRIAL(-V/T)=   2.00529630
