 80
GAUSSIAN              5 MOL ORBITALS    126 PRIMITIVES        3 NUCLEI   B3LYP
  O    1    (CENTRE  1)  -0.09448631  0.00000000  0.00815606  CHARGE =  8.0
  H    2    (CENTRE  2)   0.00000000 -1.44255835 -1.09730160  CHARGE =  1.0
  H    3    (CENTRE  3)   0.00000000  1.44255835 -1.00281530  CHARGE =  1.0
CENTRE ASSIGNMENTS    1  1  1  1  1  1  1  1  1  1  1  1  1  1  1  1  1  1  1  1
CENTRE ASSIGNMENTS    1  1  1  1  1  1  1  1  1  1  1  1  1  1  1  1  1  1  1  1
CENTRE ASSIGNMENTS    1  1  1  1  1  1  1  1  1  1  1  1  1  1  1  1  1  1  1  1
CENTRE ASSIGNMENTS    1  1  1  1  1  1  1  1  1  1  1  1  2  2  2  2  2  2  2  2
CENTRE ASSIGNMENTS    2  2  2  2  2  2  2  2  2  2  2  2  2  2  2  2  2  2  2  3
CENTRE ASSIGNMENTS    3  3  3  3  3  3  3  3  3  3  3  3  3  3  3  3  3  3  3  3
CENTRE ASSIGNMENTS    3  3  3  3  3  3
TYPE ASSIGNMENTS      1  1  1  1  1  1  1  1  1  1  1  1  1  1  1  1  2  2  2  3
TYPE ASSIGNMENTS      3  3  4  4  4  2  3  4  2  3  4  2  3  4  5  6  7  8  9 10
TYPE ASSIGNMENTS      5  6  7  8  9 10  5  6  7  8  9 10 11 12 13 17 14 15 18 19
TYPE ASSIGNMENTS     16 20 11 12 13 17 14 15 18 19 16 20  1  1  1  1  1  1  2  3
TYPE ASSIGNMENTS      4  2  3  4  2  3  4  5  6  7  8  9 10  5  6  7  8  9 10  1
TYPE ASSIGNMENTS      1  1  1  1  1  2  3  4  2  3  4  2  3  4  5  6  7  8  9 10
TYPE ASSIGNMENTS      5  6  7  8  9 10
EXPONENTS  0.1533000D+05 0.2299000D+04 0.5224000D+03 0.1473000D+03 0.4755000D+02
EXPONENTS  0.1676000D+02 0.6207000D+01 0.5224000D+03 0.1473000D+03 0.4755000D+02
EXPONENTS  0.1676000D+02 0.6207000D+01 0.6882000D+00 0.1752000D+01 0.2384000D+00
EXPONENTS  0.7376000D-01 0.3446000D+02 0.7749000D+01 0.2280000D+01 0.3446000D+02
EXPONENTS  0.7749000D+01 0.2280000D+01 0.3446000D+02 0.7749000D+01 0.2280000D+01
EXPONENTS  0.7156000D+00 0.7156000D+00 0.7156000D+00 0.2140000D+00 0.2140000D+00
EXPONENTS  0.2140000D+00 0.5974000D-01 0.5974000D-01 0.5974000D-01 0.2314000D+01
EXPONENTS  0.2314000D+01 0.2314000D+01 0.2314000D+01 0.2314000D+01 0.2314000D+01
EXPONENTS  0.6450000D+00 0.6450000D+00 0.6450000D+00 0.6450000D+00 0.6450000D+00
EXPONENTS  0.6450000D+00 0.2140000D+00 0.2140000D+00 0.2140000D+00 0.2140000D+00
EXPONENTS  0.2140000D+00 0.2140000D+00 0.1428000D+01 0.1428000D+01 0.1428000D+01
EXPONENTS  0.1428000D+01 0.1428000D+01 0.1428000D+01 0.1428000D+01 0.1428000D+01
EXPONENTS  0.1428000D+01 0.1428000D+01 0.5000000D+00 0.5000000D+00 0.5000000D+00
EXPONENTS  0.5000000D+00 0.5000000D+00 0.5000000D+00 0.5000000D+00 0.5000000D+00
EXPONENTS  0.5000000D+00 0.5000000D+00 0.3387000D+02 0.5095000D+01 0.1159000D+01
EXPONENTS  0.3258000D+00 0.1027000D+00 0.2526000D-01 0.1407000D+01 0.1407000D+01
EXPONENTS  0.1407000D+01 0.3880000D+00 0.3880000D+00 0.3880000D+00 0.1020000D+00
EXPONENTS  0.1020000D+00 0.1020000D+00 0.1057000D+01 0.1057000D+01 0.1057000D+01
EXPONENTS  0.1057000D+01 0.1057000D+01 0.1057000D+01 0.2470000D+00 0.2470000D+00
EXPONENTS  0.2470000D+00 0.2470000D+00 0.2470000D+00 0.2470000D+00 0.3387000D+02
EXPONENTS  0.5095000D+01 0.1159000D+01 0.3258000D+00 0.1027000D+00 0.2526000D-01
EXPONENTS  0.1407000D+01 0.1407000D+01 0.1407000D+01 0.3880000D+00 0.3880000D+00
EXPONENTS  0.3880000D+00 0.1020000D+00 0.1020000D+00 0.1020000D+00 0.1057000D+01
EXPONENTS  0.1057000D+01 0.1057000D+01 0.1057000D+01 0.1057000D+01 0.1057000D+01
EXPONENTS  0.2470000D+00 0.2470000D+00 0.2470000D+00 0.2470000D+00 0.2470000D+00
EXPONENTS  0.2470000D+00
MO    1     MO 0.0        OCC NO =    2.0000000  ORB. ENERGY =    0.000000
 -0.55697934D-01 -0.10381179D+00 -0.17602748D+00 -0.26639887D+00 -0.33231160D+00
 -0.28517279D+00 -0.10920603D+00 -0.55841079D-03 -0.59913813D-02 -0.22085360D-01
 -0.64576296D-01 -0.77817577D-01  0.93739518D-01  0.50926446D-01 -0.20350992D-01
 -0.63356915D-02 -0.35213738D-01 -0.34145480D-01 -0.23034339D-01 -0.11612649D+00
 -0.11260363D+00 -0.75961745D-01 -0.14133015D+01 -0.13704271D+01 -0.92448202D+00
 -0.89705756D-02 -0.25814104D-01 -0.30757959D+00 -0.27678179D-02 -0.31409805D-02
 -0.35656274D-01 -0.12414750D-03 -0.25158364D-04 -0.72618689D-03 -0.45785307D-01
  0.92890558D-02  0.36496251D-01 -0.97796118D-03 -0.80640249D-02  0.10350021D-01
 -0.67299422D-02 -0.42099847D-02  0.10939927D-01 -0.20928120D-03 -0.14911577D-02
  0.23734002D-02  0.80738195D-03 -0.13924434D-02  0.58506147D-03 -0.17899832D-04
  0.14743112D-03  0.14034940D-03 -0.65768319D-03 -0.53514943D-03 -0.20432240D-03
 -0.56575284D-03  0.16449800D-02  0.18135097D-01  0.25388024D-02 -0.39531733D-04
 -0.17522129D-01  0.63370436D-04  0.20032859D-04  0.29542841D-04 -0.67664338D-03
 -0.20879445D-03  0.21858096D-03  0.75996520D-04  0.14869587D-03 -0.30720949D-03
  0.19539336D-02  0.66812690D-04  0.35691462D-01  0.64371022D-01  0.94915035D-01
  0.62236644D-01  0.79464543D-02  0.60059322D-04 -0.29140884D-02  0.32976096D-01
  0.88160349D-02 -0.13280318D-02  0.12551690D-01  0.17086043D-02 -0.99655117D-04
  0.74141493D-04 -0.98340181D-03 -0.48974856D-02  0.74505353D-02 -0.25530497D-02
 -0.20750864D-02 -0.12187020D-02  0.11745291D-01 -0.96765557D-04  0.18804886D-03
 -0.91283302D-04 -0.77827933D-04 -0.76285313D-04 -0.41890000D-03  0.28795009D-01
  0.51932984D-01  0.76575155D-01  0.50164185D-01  0.58938818D-02  0.76820387D-04
 -0.27159055D-02 -0.31833600D-01  0.26642167D-02 -0.12117109D-02 -0.11460879D-01
 -0.13305043D-02 -0.98235792D-04 -0.13086703D-04 -0.11031057D-02 -0.38721125D-02
  0.77624244D-02 -0.38903119D-02  0.19691394D-02 -0.85686213D-03 -0.77743575D-02
  0.82555381D-05  0.15359511D-03 -0.16185065D-03  0.57987342D-04 -0.44299222D-04
  0.81129543D-03
MO    2     MO 0.0        OCC NO =    2.0000000  ORB. ENERGY =    0.000000
 -0.44342034D-01 -0.82646260D-01 -0.14013835D+00 -0.21208449D+00 -0.26455868D+00
 -0.22703071D+00 -0.86940700D-01  0.17698242D-03  0.18989052D-02  0.69997222D-02
  0.20466777D-01  0.24663462D-01 -0.29709753D-01 -0.22947006D-01 -0.18940517D-01
 -0.20223421D-02 -0.37451757D+00 -0.36315606D+00 -0.24498293D+00  0.14163982D+01
  0.13734298D+01  0.92650763D+00 -0.22385249D+00 -0.21706162D+00 -0.14642848D+00
 -0.84947739D-01  0.28914298D+00 -0.46988906D-01 -0.14117471D-01  0.25125328D-01
 -0.57839632D-02 -0.45453754D-03  0.22218747D-03 -0.13865924D-03 -0.52248916D-02
  0.14858652D-02  0.37390263D-02  0.10784457D-01  0.14622801D-01 -0.13087795D+00
 -0.16501503D-03 -0.14263818D-02  0.15913969D-02  0.13264192D-02  0.38027424D-02
 -0.15293896D-01  0.22853175D-03 -0.34801418D-03  0.11948242D-03 -0.11852808D-03
  0.28870724D-03  0.14989406D-02  0.21978272D-02  0.68657916D-02 -0.84037204D-03
 -0.51306498D-02 -0.13581809D-01  0.21513767D-02 -0.14628318D-02 -0.70155660D-02
  0.36973943D-03 -0.12565262D-02  0.74231117D-04  0.13423680D-03 -0.11412429D-03
 -0.11664315D-03 -0.62762869D-03 -0.98335864D-04 -0.10605020D-03  0.22491830D-03
  0.44070873D-03 -0.24664103D-03 -0.34535609D-01 -0.62286393D-01 -0.91841250D-01
 -0.61134202D-01 -0.66537271D-02  0.12730991D-03 -0.29940212D-02 -0.19402331D-01
 -0.28732980D-01 -0.20123755D-02 -0.61206854D-02 -0.11267023D-01 -0.42947302D-03
  0.24988815D-03 -0.38399010D-03  0.67550111D-02 -0.29178327D-02 -0.38371783D-02
 -0.94575538D-03 -0.21246359D-03 -0.20502361D-01  0.28842326D-04  0.17741830D-03
 -0.20626062D-03 -0.22696360D-03 -0.14292058D-03 -0.68923900D-03  0.39042835D-01
  0.70415361D-01  0.10382741D+00  0.77095356D-01  0.95891810D-02 -0.73762590D-04
 -0.83009366D-02 -0.26316721D-01  0.25997583D-01 -0.41504468D-02 -0.10336307D-01
  0.10186933D-01 -0.48404306D-03  0.17891397D-03 -0.24223672D-04 -0.76561479D-02
  0.61523638D-02  0.15037841D-02  0.50696313D-02 -0.37873236D-02 -0.22406747D-01
  0.46351133D-04 -0.15554833D-03  0.10919720D-03  0.34354849D-03 -0.20350530D-03
 -0.27019809D-03
MO    3     MO 0.0        OCC NO =    2.0000000  ORB. ENERGY =    0.000000
 -0.10772782D-01 -0.20078695D-01 -0.34046249D-01 -0.51525378D-01 -0.64273848D-01
 -0.55156524D-01 -0.21122018D-01  0.65639315D-03  0.70426677D-02  0.25960599D-01
  0.75907269D-01  0.91471951D-01 -0.11018766D+00 -0.68949799D-01 -0.47495747D-01
 -0.47877862D-02  0.16149824D+01  0.15659897D+01  0.10564074D+01  0.19075126D+00
  0.18496456D+00  0.12477600D+00 -0.32158038D+00 -0.31182480D+00 -0.21035517D+00
  0.36405880D+00  0.38945497D-01 -0.67129852D-01  0.59272189D-01  0.33429006D-02
 -0.85177135D-02  0.18695967D-02  0.27749588D-04 -0.10831436D-03  0.18244120D-02
 -0.81106999D-02  0.62862880D-02  0.52558933D-02 -0.66984944D-01 -0.17609597D-01
  0.19148689D-02 -0.37347307D-02  0.18198618D-02  0.30502976D-03 -0.16554636D-01
 -0.23617416D-02  0.34619878D-03 -0.42655674D-03  0.80357958D-04 -0.97010903D-04
 -0.10040775D-02  0.20618670D-03 -0.96058841D-02  0.81361424D-03 -0.53457792D-03
  0.20626678D-01 -0.16588073D-02 -0.91484231D-03  0.81909746D-02 -0.78203544D-03
  0.25185761D-02  0.11179840D-03 -0.25504103D-03  0.31201389D-04 -0.37675977D-05
  0.31384329D-03 -0.13558868D-03 -0.14589409D-03  0.45127979D-03  0.41984517D-04
  0.15719688D-03  0.35296619D-03 -0.38549040D-02 -0.69524781D-02 -0.10251425D-01
  0.27100925D-02  0.28698328D-02  0.82951393D-04  0.22602185D-01 -0.24509517D-02
 -0.80734798D-02  0.12078482D-01  0.24007841D-02 -0.15222760D-02  0.18622727D-02
  0.27827055D-03 -0.15665963D-03 -0.17062901D-03  0.13393911D-02 -0.11687621D-02
  0.11010658D-01  0.83610208D-02 -0.20636494D-02 -0.13846293D-03  0.16095688D-03
 -0.22493951D-04  0.11575153D-02  0.70776447D-03 -0.56255023D-04  0.55202777D-02
  0.99560482D-02  0.14680187D-01  0.21040700D-01  0.49118313D-02  0.54456638D-04
  0.23573179D-01 -0.34166093D-02 -0.11626093D-02  0.12656585D-01 -0.46094796D-02
  0.11291965D-02  0.19474006D-02 -0.19708324D-03 -0.13185950D-03 -0.20926290D-02
  0.25963404D-02 -0.50371141D-03 -0.11564125D-01  0.79452242D-02 -0.32728904D-02
 -0.12857811D-03  0.10624512D-03  0.22332991D-04 -0.12713184D-02  0.73391735D-03
 -0.31409235D-04
MO    4     MO 0.0        OCC NO =    2.0000000  ORB. ENERGY =    0.000000
 -0.11262521D+00 -0.20991487D+00 -0.35594016D+00 -0.53867758D+00 -0.67195782D+00
 -0.57663978D+00 -0.22082240D+00 -0.14963934D-02 -0.16055319D-01 -0.59182928D-01
 -0.17304741D+00 -0.20853054D+00  0.25119714D+00  0.14129643D+00  0.90898133D-01
  0.81611946D-02  0.65227394D+00  0.63248631D+00  0.42667153D+00  0.29079349D+00
  0.28197187D+00  0.19021656D+00  0.68997312D+00  0.66904184D+00  0.45133167D+00
  0.14792559D+00  0.58462870D-01  0.14785460D+00  0.24274966D-01  0.47099584D-02
  0.22899825D-01  0.79362227D-03  0.33870593D-04  0.47905470D-03  0.17203890D-03
  0.20251961D-01 -0.20423999D-01  0.41709004D-02 -0.26109656D-01 -0.26561042D-01
 -0.17216919D-02  0.66670551D-02 -0.49453632D-02  0.29609856D-03 -0.68743980D-02
 -0.21280693D-02 -0.21935084D-03  0.47059152D-03 -0.25124068D-03 -0.62256658D-04
 -0.46644515D-03  0.36946451D-03 -0.39800432D-02  0.15374074D-02  0.24887490D-02
  0.96914526D-02 -0.25945280D-02 -0.41666235D-02  0.22486770D-02 -0.20176943D-02
 -0.32996235D-02  0.14070479D-04 -0.11383789D-03  0.88281169D-05 -0.52436081D-04
  0.12664276D-03 -0.71391181D-04 -0.75969761D-04  0.21487091D-03  0.44906831D-04
  0.23327801D-03  0.15318546D-03 -0.20791911D-02 -0.37499069D-02 -0.55292355D-02
 -0.24969796D-01 -0.81754182D-02 -0.10441070D-03  0.89449493D-02  0.21923495D-02
  0.10122775D-01  0.52756077D-02 -0.58597748D-02  0.83127685D-03  0.79346086D-03
 -0.47947103D-03  0.40196028D-03  0.78289489D-03 -0.28261008D-02  0.20432059D-02
  0.48956409D-02  0.34529429D-02 -0.58687795D-03  0.13010155D-03 -0.23241634D-03
  0.10231479D-03  0.51906430D-03  0.33261600D-03 -0.41747860D-04  0.14706082D-01
  0.26523025D-01  0.39108185D-01  0.53642069D-02 -0.44569817D-02 -0.14210311D-03
  0.84628687D-02 -0.13714104D-01  0.23012766D-01  0.52150733D-02  0.19339266D-02
  0.59714480D-02  0.82381894D-03  0.49674971D-03  0.54084294D-03 -0.26541588D-02
 -0.44670159D-03  0.31008604D-02 -0.44299921D-02  0.26396680D-02 -0.10085572D-01
  0.10972456D-03 -0.27117224D-03  0.16144768D-03 -0.55434268D-03  0.33226413D-03
 -0.24031791D-03
MO    5     MO 0.0        OCC NO =    2.0000000  ORB. ENERGY =    0.000000
  0.49131015D+00  0.91572134D+00  0.15527342D+01  0.23498981D+01  0.29313127D+01
  0.25155024D+01  0.96330378D+00  0.46779985D-04  0.50191854D-03  0.18501662D-02
  0.54097775D-02  0.65190450D-02 -0.78528805D-02  0.53072027D-01 -0.22863512D-02
 -0.37996918D-03  0.15254569D+00  0.14791800D+00  0.99784610D-01  0.18581050D+00
  0.18017368D+00  0.12154410D+00 -0.89826954D-01 -0.87101930D-01 -0.58758447D-01
  0.34283867D-01  0.38559430D-01 -0.18695501D-01  0.55185613D-02  0.35071977D-02
 -0.21992273D-02  0.17293686D-03  0.37248459D-04 -0.44297767D-04 -0.49744511D-02
  0.33944010D-02  0.15800501D-02  0.19960432D-02 -0.72377475D-02 -0.18000145D-01
 -0.11436900D-03 -0.55301164D-03  0.66738064D-03  0.21639165D-03 -0.16516967D-02
 -0.23222719D-02  0.10592269D-03 -0.15053842D-03  0.44615729D-04 -0.22230898D-04
 -0.84064800D-04  0.15690734D-03 -0.10757081D-02  0.98252785D-03  0.59410219D-03
  0.22601265D-02 -0.21397202D-02  0.21050188D-02  0.96699791D-03 -0.80786338D-03
 -0.38873254D-02 -0.25304261D-03  0.28579592D-05  0.38221873D-05 -0.20357358D-03
 -0.51682463D-04 -0.61180659D-04 -0.30479369D-03  0.43108585D-04  0.49714097D-04
  0.91551443D-03  0.22082725D-04 -0.29418229D-02 -0.53056988D-02 -0.78232498D-02
 -0.58085203D-02 -0.65015355D-03  0.23064937D-04  0.22937789D-02 -0.15904244D-02
 -0.34827755D-02  0.12320794D-02 -0.80373251D-03 -0.16874730D-02  0.17818169D-03
  0.67558874D-05 -0.11666165D-03  0.15665935D-02 -0.93807585D-03 -0.62851763D-03
  0.13929981D-02  0.11244172D-02 -0.47652390D-02  0.16631116D-05  0.31377896D-04
 -0.33041008D-04  0.11722179D-03  0.72007369D-04 -0.14079344D-03  0.66864849D-02
  0.12059351D-01  0.17781506D-01  0.11313686D-01  0.11206912D-02 -0.14517467D-04
  0.18332555D-02 -0.38990573D-02  0.32172055D-02  0.10945104D-02 -0.78764228D-03
  0.70306779D-03  0.18546221D-03  0.11495321D-03 -0.10433848D-03  0.19069236D-04
 -0.17134271D-03  0.15227348D-03 -0.10838198D-02  0.72441530D-03  0.41131222D-04
  0.22013244D-04 -0.35639713D-04  0.13626469D-04 -0.12245648D-03  0.70830402D-04
  0.70533936D-04
END DATA
 TOTAL ENERGY =    -76.465323294674 THE VIRIAL(-V/T)=   2.00529630
