 80
GAUSSIAN              5 MOL ORBITALS    126 PRIMITIVES        3 NUCLEI   B3LYP
  O    1    (CENTRE  1)   0.09448631  0.00000000  0.00815606  CHARGE =  8.0
  H    2    (CENTRE  2)   0.00000000 -1.44255835 -1.09730160  CHARGE =  1.0
  H    3    (CENTRE  3)   0.00000000  1.44255835 -1.19178791  CHARGE =  1.0
CENTRE ASSIGNMENTS    1  1  1  1  1  1  1  1  1  1  1  1  1  1  1  1  1  1  1  1
CENTRE ASSIGNMENTS    1  1  1  1  1  1  1  1  1  1  1  1  1  1  1  1  1  1  1  1
CENTRE ASSIGNMENTS    1  1  1  1  1  1  1  1  1  1  1  1  1  1  1  1  1  1  1  1
CENTRE ASSIGNMENTS    1  1  1  1  1  1  1  1  1  1  1  1  2  2  2  2  2  2  2  2
CENTRE ASSIGNMENTS    2  2  2  2  2  2  2  2  2  2  2  2  2  2  2  2  2  2  2  3
CENTRE ASSIGNMENTS    3  3  3  3  3  3  3  3  3  3  3  3  3  3  3  3  3  3  3  3
CENTRE ASSIGNMENTS    3  3  3  3  3  3
TYPE ASSIGNMENTS      1  1  1  1  1  1  1  1  1  1  1  1  1  1  1  1  2  2  2  3
TYPE ASSIGNMENTS      3  3  4  4  4  2  3  4  2  3  4  2  3  4  5  6  7  8  9 10
TYPE ASSIGNMENTS      5  6  7  8  9 10  5  6  7  8  9 10 11 12 13 17 14 15 18 19
TYPE ASSIGNMENTS     16 20 11 12 13 17 14 15 18 19 16 20  1  1  1  1  1  1  2  3
TYPE ASSIGNMENTS      4  2  3  4  2  3  4  5  6  7  8  9 10  5  6  7  8  9 10  1
TYPE ASSIGNMENTS      1  1  1  1  1  2  3  4  2  3  4  2  3  4  5  6  7  8  9 10
TYPE ASSIGNMENTS      5  6  7  8  9 10
EXPONENTS  0.1533000D+05 0.2299000D+04 0.5224000D+03 0.1473000D+03 0.4755000D+02
EXPONENTS  0.1676000D+02 0.6207000D+01 0.5224000D+03 0.1473000D+03 0.4755000D+02
EXPONENTS  0.1676000D+02 0.6207000D+01 0.6882000D+00 0.1752000D+01 0.2384000D+00
EXPONENTS  0.7376000D-01 0.3446000D+02 0.7749000D+01 0.2280000D+01 0.3446000D+02
EXPONENTS  0.7749000D+01 0.2280000D+01 0.3446000D+02 0.7749000D+01 0.2280000D+01
EXPONENTS  0.7156000D+00 0.7156000D+00 0.7156000D+00 0.2140000D+00 0.2140000D+00
EXPONENTS  0.2140000D+00 0.5974000D-01 0.5974000D-01 0.5974000D-01 0.2314000D+01
EXPONENTS  0.2314000D+01 0.2314000D+01 0.2314000D+01 0.2314000D+01 0.2314000D+01
EXPONENTS  0.6450000D+00 0.6450000D+00 0.6450000D+00 0.6450000D+00 0.6450000D+00
EXPONENTS  0.6450000D+00 0.2140000D+00 0.2140000D+00 0.2140000D+00 0.2140000D+00
EXPONENTS  0.2140000D+00 0.2140000D+00 0.1428000D+01 0.1428000D+01 0.1428000D+01
EXPONENTS  0.1428000D+01 0.1428000D+01 0.1428000D+01 0.1428000D+01 0.1428000D+01
EXPONENTS  0.1428000D+01 0.1428000D+01 0.5000000D+00 0.5000000D+00 0.5000000D+00
EXPONENTS  0.5000000D+00 0.5000000D+00 0.5000000D+00 0.5000000D+00 0.5000000D+00
EXPONENTS  0.5000000D+00 0.5000000D+00 0.3387000D+02 0.5095000D+01 0.1159000D+01
EXPONENTS  0.3258000D+00 0.1027000D+00 0.2526000D-01 0.1407000D+01 0.1407000D+01
EXPONENTS  0.1407000D+01 0.3880000D+00 0.3880000D+00 0.3880000D+00 0.1020000D+00
EXPONENTS  0.1020000D+00 0.1020000D+00 0.1057000D+01 0.1057000D+01 0.1057000D+01
EXPONENTS  0.1057000D+01 0.1057000D+01 0.1057000D+01 0.2470000D+00 0.2470000D+00
EXPONENTS  0.2470000D+00 0.2470000D+00 0.2470000D+00 0.2470000D+00 0.3387000D+02
EXPONENTS  0.5095000D+01 0.1159000D+01 0.3258000D+00 0.1027000D+00 0.2526000D-01
EXPONENTS  0.1407000D+01 0.1407000D+01 0.1407000D+01 0.3880000D+00 0.3880000D+00
EXPONENTS  0.3880000D+00 0.1020000D+00 0.1020000D+00 0.1020000D+00 0.1057000D+01
EXPONENTS  0.1057000D+01 0.1057000D+01 0.1057000D+01 0.1057000D+01 0.1057000D+01
EXPONENTS  0.2470000D+00 0.2470000D+00 0.2470000D+00 0.2470000D+00 0.2470000D+00
EXPONENTS  0.2470000D+00
MO    1     MO 0.0        OCC NO =    2.0000000  ORB. ENERGY =    0.000000
  0.26628703D-01  0.49631523D-01  0.84157222D-01  0.12736301D+00  0.15887531D+00
  0.13633865D+00  0.52210462D-01 -0.33278466D-03 -0.35705610D-02 -0.13161760D-01
 -0.38484214D-01 -0.46375350D-01  0.55864023D-01  0.36708505D-01 -0.31416756D-01
 -0.75943428D-02 -0.22714213D-02 -0.22025146D-02 -0.14858033D-02 -0.19114542D-01
 -0.18534676D-01 -0.12503383D-01 -0.14774545D+01 -0.14326339D+01 -0.96644633D+00
  0.44433324D-03 -0.20438367D-02 -0.32213205D+00  0.13024267D-02  0.66756365D-03
 -0.38365278D-01  0.83737875D-04  0.29410468D-05 -0.73205004D-03 -0.45213235D-01
  0.48847077D-02  0.40328527D-01  0.22455119D-03  0.92673596D-02  0.26976664D-02
 -0.69656122D-02 -0.49987605D-02  0.11964373D-01 -0.60075820D-04  0.18303508D-02
 -0.64678414D-03  0.65196718D-03 -0.12556452D-02  0.60367800D-03 -0.28001059D-04
 -0.98948168D-04 -0.27753670D-03  0.87031087D-03 -0.87887423D-04 -0.13006141D-02
  0.17465321D-03 -0.32099800D-03  0.19088411D-01 -0.27855858D-02  0.58466027D-03
 -0.15186568D-01 -0.34648834D-04  0.42804415D-05 -0.40756524D-04 -0.71675246D-03
  0.18985861D-03 -0.14269057D-03  0.42939159D-03 -0.20269993D-03  0.26496014D-03
  0.17208658D-02  0.45371577D-04  0.31597547D-01  0.56987477D-01  0.84028002D-01
  0.57863754D-01  0.81381332D-02  0.92081301D-04  0.21151375D-02  0.30543916D-01
  0.46753745D-02  0.97452107D-03  0.12671573D-01  0.53436957D-03  0.59568335D-04
  0.17202002D-03 -0.96528310D-03 -0.43608622D-02  0.74259527D-02 -0.30650905D-02
  0.16830621D-02  0.85548865D-03  0.97055098D-02 -0.98447362D-04  0.22930799D-03
 -0.13086063D-03  0.53033956D-04  0.47079320D-04 -0.41361687D-03  0.31510596D-01
  0.56830657D-01  0.83796771D-01  0.56848082D-01  0.87469164D-02  0.97337347D-04
  0.18997513D-02 -0.27633347D-01  0.53564941D-02  0.91507328D-03 -0.12182659D-01
  0.13538560D-02  0.59207518D-04 -0.27842694D-03 -0.87237197D-03 -0.40082167D-02
  0.63927371D-02 -0.23845204D-02 -0.14610526D-02  0.84986967D-03 -0.93197192D-02
 -0.20564460D-03  0.28209498D-03 -0.76450380D-04 -0.64581293D-04  0.71522000D-04
  0.10912694D-03
MO    2     MO 0.0        OCC NO =    2.0000000  ORB. ENERGY =    0.000000
  0.48283779D+00  0.89993025D+00  0.15259582D+01  0.23093755D+01  0.28807639D+01
  0.24721240D+01  0.94669216D+00  0.14787900D-03  0.15866446D-02  0.58486709D-02
  0.17101171D-01  0.20607742D-01 -0.24824209D-01  0.41986405D-01  0.33202434D-03
  0.60906179D-03  0.48384361D+00  0.46916554D+00  0.31649630D+00  0.51261121D-02
  0.49706044D-02  0.33531403D-02  0.10095776D+00  0.97895064D-01  0.66039432D-01
  0.10931838D+00  0.17801243D-03  0.23146672D-01  0.17958376D-01 -0.28276920D-03
  0.21666532D-02  0.57638622D-03 -0.91554257D-05  0.17977491D-04  0.15783559D-02
  0.67242404D-03 -0.22507799D-02 -0.10743117D-02 -0.20067125D-01  0.65387939D-04
  0.71074276D-03  0.56161736D-04 -0.76690449D-03 -0.38730063D-04 -0.54116212D-02
  0.46642945D-03 -0.48101394D-04  0.79366447D-04 -0.31265053D-04  0.27518661D-04
 -0.35757064D-03  0.83424220D-04 -0.28605756D-02 -0.11272812D-04  0.19802090D-03
  0.56191148D-02  0.40700143D-03  0.54088562D-04  0.29626120D-02 -0.37318299D-03
 -0.64815126D-03 -0.11323928D-03 -0.14942947D-03  0.16486779D-04 -0.52889917D-04
  0.22837511D-03 -0.40556160D-06 -0.26967701D-03  0.21991330D-03 -0.49054775D-04
  0.42834676D-03 -0.11950350D-03 -0.40204000D-02 -0.72509569D-02 -0.10691532D-01
 -0.73024077D-02 -0.10203298D-02 -0.10024806D-04  0.64159583D-02 -0.45260223D-02
 -0.20906403D-02  0.35039396D-02 -0.20462826D-02 -0.95184340D-03  0.55284691D-03
 -0.68674120D-04  0.24238255D-05  0.17289874D-02 -0.17291276D-02  0.14022527D-06
  0.29168682D-02  0.21637143D-02 -0.44111992D-02  0.40850227D-04 -0.39213815D-04
 -0.16364115D-05  0.33712596D-03  0.20701767D-03 -0.37572638D-04 -0.37471135D-02
 -0.67580735D-02 -0.99647755D-02 -0.58740330D-02 -0.73424441D-03 -0.11477517D-05
  0.60231515D-02  0.34678387D-02 -0.15291083D-02  0.33049898D-02  0.13995627D-02
 -0.56915421D-03  0.52813672D-03  0.21046785D-04  0.28414117D-04  0.12681626D-02
 -0.11678814D-02 -0.10028125D-03 -0.27616955D-02  0.22122777D-02  0.32199329D-02
  0.33928816D-04 -0.24338920D-04 -0.95898958D-05 -0.30293159D-03  0.19239858D-03
  0.23412137D-04
MO    3     MO 0.0        OCC NO =    2.0000000  ORB. ENERGY =    0.000000
 -0.14561708D+00 -0.27140630D+00 -0.46020752D+00 -0.69647515D+00 -0.86879785D+00
 -0.74555781D+00 -0.28550903D+00 -0.82430861D-03 -0.88442904D-02 -0.32601720D-01
 -0.95325516D-01 -0.11487188D+00  0.13837536D+00  0.67711348D-01  0.51834538D-01
  0.46006553D-02  0.13643968D+01  0.13230060D+01  0.89249200D+00  0.61082413D+00
  0.59229393D+00  0.39955799D+00  0.21934351D+00  0.21268942D+00  0.14347903D+00
  0.30767293D+00  0.12835264D+00  0.43472127D-01  0.50790315D-01  0.13091642D-01
  0.57622157D-02  0.16305562D-02  0.14209989D-03  0.53214890D-04 -0.43578260D-02
  0.71076938D-02 -0.27498678D-02 -0.76634022D-02 -0.54848084D-01 -0.57175312D-01
 -0.28739749D-02  0.36809903D-02 -0.80701545D-03 -0.89837853D-03 -0.14299957D-01
 -0.88576327D-02 -0.32778835D-03  0.34642596D-03 -0.18637608D-04  0.73763369D-04
 -0.96819703D-03  0.16605742D-03 -0.79522045D-02  0.25845897D-02  0.72670820D-03
  0.15756109D-01 -0.65666695D-02  0.20551784D-02  0.81005050D-02 -0.11870997D-02
 -0.42353030D-02  0.90837416D-03 -0.33113169D-03  0.36169176D-04  0.47850526D-04
  0.50806992D-03 -0.49225607D-03  0.35688184D-03  0.48532516D-03  0.38374854D-03
 -0.50043342D-03 -0.18613651D-03 -0.12820810D-01 -0.23122859D-01 -0.34094642D-01
 -0.35028270D-01 -0.68965905D-02 -0.14137237D-04  0.18223374D-01 -0.45769691D-02
 -0.52022683D-02  0.97968861D-02 -0.50797736D-02 -0.40750359D-02  0.15627333D-02
 -0.79893795D-04 -0.45442828D-05  0.30474656D-02 -0.20686294D-02 -0.97883621D-03
  0.87140217D-02  0.62755444D-02 -0.70974160D-02  0.13997583D-03 -0.30951980D-04
 -0.10902385D-03  0.93981255D-03  0.56367000D-03 -0.27502258D-03  0.17469642D-01
  0.31507218D-01  0.46457375D-01  0.20703281D-01 -0.10805327D-03 -0.12665225D-03
  0.18691922D-01 -0.99947385D-02  0.16570702D-01  0.98546728D-02 -0.33859129D-03
  0.47389570D-02  0.14980836D-02  0.39521003D-03  0.12583212D-03 -0.22979528D-02
 -0.54605798D-04  0.23525586D-02 -0.92105578D-02  0.76139905D-02 -0.85876463D-02
  0.51980075D-04 -0.16041463D-03  0.10843455D-03 -0.88234871D-03  0.57286110D-03
 -0.24494948D-03
MO    4     MO 0.0        OCC NO =    2.0000000  ORB. ENERGY =    0.000000
  0.45841995D-01  0.85441940D-01  0.14487882D+00  0.21925868D+00  0.27350793D+00
  0.23471049D+00  0.89881649D-01 -0.70189256D-03 -0.75308466D-02 -0.27760118D-01
 -0.81168958D-01 -0.97812541D-01  0.11782557D+00  0.77526992D-01  0.44027838D-01
  0.36866823D-02 -0.10334412D+01 -0.10020904D+01 -0.67600424D+00  0.99462915D+00
  0.96445570D+00  0.65061612D+00  0.29314418D+00  0.28425124D+00  0.19175421D+00
 -0.23387192D+00  0.20874601D+00  0.61457631D-01 -0.38810397D-01  0.21290883D-01
  0.94227283D-02 -0.12628911D-02  0.23450679D-03  0.22173021D-03  0.10495509D-02
  0.56653285D-02 -0.67148794D-02 -0.51980667D-02  0.41792735D-01 -0.92949875D-01
 -0.88138105D-03  0.28177113D-02 -0.19363302D-02 -0.95963599D-03  0.11311003D-01
 -0.13943706D-01 -0.14648839D-03  0.26272043D-03 -0.11623204D-03 -0.17766679D-04
  0.80965759D-03  0.30063251D-03  0.61805916D-02  0.43300601D-02  0.18107720D-02
 -0.12827554D-01 -0.10796126D-01 -0.21305750D-02 -0.57142209D-02 -0.21940541D-02
 -0.33017410D-02  0.13713163D-02  0.28201060D-03  0.66651125D-04  0.53416034D-04
 -0.43994592D-03 -0.73023331D-03  0.93039504D-05 -0.40608587D-03  0.53027993D-03
 -0.16955205D-03  0.46412999D-03 -0.21525262D-01 -0.38821696D-01 -0.57242568D-01
 -0.49693053D-01 -0.82573280D-02  0.31650954D-04 -0.15618043D-01 -0.90739490D-02
 -0.10755586D-01 -0.84901175D-02 -0.62767342D-02 -0.58050080D-02 -0.12249432D-02
  0.45312895D-04  0.89474843D-04  0.39902864D-02 -0.27251547D-02 -0.12651316D-02
 -0.83648590D-02 -0.63862741D-02 -0.11935677D-01  0.57424576D-04  0.36771629D-04
 -0.94196205D-04 -0.78529270D-03 -0.50327102D-03 -0.31524491D-03  0.27998793D-01
  0.50496977D-01  0.74457763D-01  0.41269107D-01  0.29942012D-02 -0.14481378D-03
 -0.11682777D-01 -0.15006415D-01  0.24929437D-01 -0.67546393D-02 -0.27146127D-02
  0.87342668D-02 -0.11443533D-02  0.43073515D-03  0.32410323D-03 -0.48018447D-02
  0.68342378D-03  0.41184209D-02  0.55835704D-02 -0.39819915D-02 -0.14172915D-01
 -0.85230807D-04 -0.16245085D-03  0.24768165D-03  0.63289697D-03 -0.39133898D-03
 -0.55692226D-03
MO    5     MO 0.0        OCC NO =    2.0000000  ORB. ENERGY =    0.000000
 -0.46231866D-01 -0.86168597D-01 -0.14611097D+00 -0.22112341D+00 -0.27583402D+00
 -0.23670663D+00 -0.90646064D-01 -0.13251654D-02 -0.14218155D-01 -0.52410796D-01
 -0.15324609D+00 -0.18466900D+00  0.22245337D+00  0.13185698D+00  0.77255941D-01
  0.66113126D-02 -0.21509030D+00 -0.20856524D+00 -0.14069688D+00 -0.89059294D+00
 -0.86357557D+00 -0.58256298D+00  0.47672917D+00  0.46226693D+00  0.31184254D+00
 -0.49060085D-01 -0.18628943D+00  0.10141328D+00 -0.81350000D-02 -0.18659462D-01
  0.16217008D-01 -0.27994608D-03 -0.20285203D-03  0.30489419D-03 -0.38009071D-02
  0.17610252D-01 -0.13809345D-01  0.75408607D-02  0.88672311D-02  0.83665507D-01
 -0.23532258D-02  0.55349709D-02 -0.31817450D-02  0.10200703D-02  0.26310246D-02
  0.11452955D-01 -0.13452597D-03  0.30287875D-03 -0.16835278D-03 -0.35615412D-04
  0.18440313D-03 -0.33433080D-03  0.13986183D-02 -0.40813348D-02  0.21121286D-02
 -0.34674430D-02  0.95609959D-02 -0.17124053D-02 -0.72841192D-03  0.26830086D-02
 -0.46239805D-02 -0.11614176D-02  0.65172280D-04 -0.61613052D-04 -0.11881861D-04
 -0.99322396D-04  0.57403263D-03 -0.44413032D-04 -0.96194443D-04 -0.38919348D-03
  0.80058615D-04 -0.97282654D-04  0.29483330D-01  0.53174399D-01  0.78405621D-01
  0.35694282D-01 -0.15155876D-03 -0.18435264D-03 -0.95748396D-03  0.20112487D-01
  0.30286498D-01 -0.11549787D-02  0.16810341D-02  0.90258790D-02 -0.26463697D-03
 -0.62769197D-03  0.36323406D-03 -0.48979495D-02  0.90703374D-03  0.39909157D-02
 -0.40007614D-03  0.20777216D-03  0.16029633D-01  0.48091869D-04 -0.26224236D-03
  0.21415049D-03 -0.15291688D-03 -0.84992374D-04  0.35555093D-03 -0.16783431D-01
 -0.30269609D-01 -0.44632521D-01 -0.47429453D-01 -0.10440122D-01 -0.22969930D-04
 -0.35114708D-02  0.37462645D-02 -0.33083559D-02 -0.21261524D-02  0.67474084D-02
 -0.45346455D-02 -0.26908053D-03  0.24430051D-03  0.10509150D-03  0.33856112D-02
 -0.25708013D-02 -0.81480986D-03  0.23031169D-02 -0.19549201D-02  0.90295993D-02
  0.19261187D-03 -0.10809987D-03 -0.84512000D-04  0.19871782D-03 -0.15010404D-03
  0.47733423D-03
END DATA
 TOTAL ENERGY =    -76.465205342093 THE VIRIAL(-V/T)=   2.00667960
