 80
GAUSSIAN              5 MOL ORBITALS    126 PRIMITIVES        3 NUCLEI   B3LYP
  O    1    (CENTRE  1)  -0.09448631  0.00000000  0.00815606  CHARGE =  8.0
  H    2    (CENTRE  2)   0.00000000 -1.44255835 -1.09730160  CHARGE =  1.0
  H    3    (CENTRE  3)   0.00000000  1.44255835 -1.19178791  CHARGE =  1.0
CENTRE ASSIGNMENTS    1  1  1  1  1  1  1  1  1  1  1  1  1  1  1  1  1  1  1  1
CENTRE ASSIGNMENTS    1  1  1  1  1  1  1  1  1  1  1  1  1  1  1  1  1  1  1  1
CENTRE ASSIGNMENTS    1  1  1  1  1  1  1  1  1  1  1  1  1  1  1  1  1  1  1  1
CENTRE ASSIGNMENTS    1  1  1  1  1  1  1  1  1  1  1  1  2  2  2  2  2  2  2  2
CENTRE ASSIGNMENTS    2  2  2  2  2  2  2  2  2  2  2  2  2  2  2  2  2  2  2  3
CENTRE ASSIGNMENTS    3  3  3  3  3  3  3  3  3  3  3  3  3  3  3  3  3  3  3  3
CENTRE ASSIGNMENTS    3  3  3  3  3  3
TYPE ASSIGNMENTS      1  1  1  1  1  1  1  1  1  1  1  1  1  1  1  1  2  2  2  3
TYPE ASSIGNMENTS      3  3  4  4  4  2  3  4  2  3  4  2  3  4  5  6  7  8  9 10
TYPE ASSIGNMENTS      5  6  7  8  9 10  5  6  7  8  9 10 11 12 13 17 14 15 18 19
TYPE ASSIGNMENTS     16 20 11 12 13 17 14 15 18 19 16 20  1  1  1  1  1  1  2  3
TYPE ASSIGNMENTS      4  2  3  4  2  3  4  5  6  7  8  9 10  5  6  7  8  9 10  1
TYPE ASSIGNMENTS      1  1  1  1  1  2  3  4  2  3  4  2  3  4  5  6  7  8  9 10
TYPE ASSIGNMENTS      5  6  7  8  9 10
EXPONENTS  0.1533000D+05 0.2299000D+04 0.5224000D+03 0.1473000D+03 0.4755000D+02
EXPONENTS  0.1676000D+02 0.6207000D+01 0.5224000D+03 0.1473000D+03 0.4755000D+02
EXPONENTS  0.1676000D+02 0.6207000D+01 0.6882000D+00 0.1752000D+01 0.2384000D+00
EXPONENTS  0.7376000D-01 0.3446000D+02 0.7749000D+01 0.2280000D+01 0.3446000D+02
EXPONENTS  0.7749000D+01 0.2280000D+01 0.3446000D+02 0.7749000D+01 0.2280000D+01
EXPONENTS  0.7156000D+00 0.7156000D+00 0.7156000D+00 0.2140000D+00 0.2140000D+00
EXPONENTS  0.2140000D+00 0.5974000D-01 0.5974000D-01 0.5974000D-01 0.2314000D+01
EXPONENTS  0.2314000D+01 0.2314000D+01 0.2314000D+01 0.2314000D+01 0.2314000D+01
EXPONENTS  0.6450000D+00 0.6450000D+00 0.6450000D+00 0.6450000D+00 0.6450000D+00
EXPONENTS  0.6450000D+00 0.2140000D+00 0.2140000D+00 0.2140000D+00 0.2140000D+00
EXPONENTS  0.2140000D+00 0.2140000D+00 0.1428000D+01 0.1428000D+01 0.1428000D+01
EXPONENTS  0.1428000D+01 0.1428000D+01 0.1428000D+01 0.1428000D+01 0.1428000D+01
EXPONENTS  0.1428000D+01 0.1428000D+01 0.5000000D+00 0.5000000D+00 0.5000000D+00
EXPONENTS  0.5000000D+00 0.5000000D+00 0.5000000D+00 0.5000000D+00 0.5000000D+00
EXPONENTS  0.5000000D+00 0.5000000D+00 0.3387000D+02 0.5095000D+01 0.1159000D+01
EXPONENTS  0.3258000D+00 0.1027000D+00 0.2526000D-01 0.1407000D+01 0.1407000D+01
EXPONENTS  0.1407000D+01 0.3880000D+00 0.3880000D+00 0.3880000D+00 0.1020000D+00
EXPONENTS  0.1020000D+00 0.1020000D+00 0.1057000D+01 0.1057000D+01 0.1057000D+01
EXPONENTS  0.1057000D+01 0.1057000D+01 0.1057000D+01 0.2470000D+00 0.2470000D+00
EXPONENTS  0.2470000D+00 0.2470000D+00 0.2470000D+00 0.2470000D+00 0.3387000D+02
EXPONENTS  0.5095000D+01 0.1159000D+01 0.3258000D+00 0.1027000D+00 0.2526000D-01
EXPONENTS  0.1407000D+01 0.1407000D+01 0.1407000D+01 0.3880000D+00 0.3880000D+00
EXPONENTS  0.3880000D+00 0.1020000D+00 0.1020000D+00 0.1020000D+00 0.1057000D+01
EXPONENTS  0.1057000D+01 0.1057000D+01 0.1057000D+01 0.1057000D+01 0.1057000D+01
EXPONENTS  0.2470000D+00 0.2470000D+00 0.2470000D+00 0.2470000D+00 0.2470000D+00
EXPONENTS  0.2470000D+00
MO    1     MO 0.0        OCC NO =    2.0000000  ORB. ENERGY =    0.000000
  0.68135186D-02  0.12699278D-01  0.21533411D-01  0.32588528D-01  0.40651620D-01
  0.34885138D-01  0.13359154D-01 -0.37696637D-03 -0.40446017D-02 -0.14909164D-01
 -0.43593520D-01 -0.52532311D-01  0.63280735D-01  0.38902405D-01 -0.28587608D-01
 -0.73386648D-02 -0.82294721D-01 -0.79798197D-01 -0.53831392D-01  0.46349056D-01
  0.44942993D-01  0.30318278D-01 -0.14653714D+01 -0.14209173D+01 -0.95854242D+00
 -0.19510415D-01  0.11709484D-01 -0.31980964D+00 -0.44472776D-02  0.20684902D-02
 -0.38088755D-01 -0.18477602D-03  0.18318285D-04 -0.73000273D-03 -0.45355380D-01
  0.51123849D-02  0.40242995D-01  0.46565903D-03 -0.58516099D-02 -0.34483639D-02
 -0.71337181D-02 -0.47931645D-02  0.11926883D-01  0.14721683D-03 -0.94286470D-03
 -0.15773113D-02  0.62869503D-03 -0.12319185D-02  0.60322348D-03  0.22719234D-04
  0.15836914D-03 -0.25894096D-03 -0.37437673D-03  0.19586543D-03 -0.12716340D-02
 -0.11603286D-02 -0.10335469D-02  0.19192441D-01  0.22834588D-02  0.44595061D-03
 -0.15377539D-01 -0.61867051D-04  0.15576383D-04 -0.36907842D-04 -0.70947611D-03
 -0.21969817D-03 -0.19218114D-03  0.46038243D-03  0.17296902D-03  0.30290467D-03
  0.16680459D-02 -0.39125641D-04  0.30029854D-01  0.54160078D-01  0.79859003D-01
  0.54395465D-01  0.75859289D-02  0.94286060D-04 -0.31951080D-02  0.29823745D-01
  0.37545997D-02 -0.15644632D-02  0.12241404D-01  0.70248013D-04 -0.15629724D-03
  0.17798120D-03 -0.96822715D-03 -0.40568993D-02  0.72583202D-02 -0.32014209D-02
 -0.21937154D-02 -0.12122651D-02  0.89123963D-02 -0.89360187D-04  0.23184777D-03
 -0.14248758D-03 -0.11062424D-03 -0.81142496D-04 -0.43942774D-03  0.33222606D-01
  0.59918338D-01  0.88349554D-01  0.59362479D-01  0.89227402D-02  0.87358136D-04
 -0.30915109D-02 -0.28508081D-01  0.67893753D-02 -0.15414538D-02 -0.12331220D-01
  0.18375552D-02 -0.15242531D-03 -0.25075438D-03 -0.86088177D-03 -0.42775456D-02
  0.64420962D-02 -0.21645506D-02  0.20618479D-02 -0.13542139D-02 -0.10224941D-01
 -0.20579333D-03  0.27092747D-03 -0.65134136D-04  0.12051688D-03 -0.10832381D-03
  0.78962531D-04
MO    2     MO 0.0        OCC NO =    2.0000000  ORB. ENERGY =    0.000000
 -0.12891490D+00 -0.24027618D+00 -0.40742203D+00 -0.61658992D+00 -0.76914732D+00
 -0.66004283D+00 -0.25276134D+00  0.34556695D-03  0.37077066D-02  0.13667305D-01
  0.39962397D-01  0.48156631D-01 -0.58009766D-01 -0.50972195D-01 -0.29519647D-01
 -0.32134268D-02  0.16237309D+01  0.15744728D+01  0.10621300D+01 -0.28335582D+00
 -0.27475983D+00 -0.18535136D+00 -0.20723970D+00 -0.20095279D+00 -0.13556157D+00
  0.36644938D+00 -0.59003091D-01 -0.42986618D-01  0.60441860D-01 -0.58047537D-02
 -0.45951430D-02  0.19433402D-02 -0.59125559D-04 -0.19213961D-04  0.71801244D-03
 -0.37834082D-02  0.30653957D-02 -0.57625730D-02 -0.66092590D-01  0.26323443D-01
  0.13112133D-02 -0.23153981D-02  0.10041848D-02 -0.54328343D-03 -0.17415911D-01
  0.38415886D-02  0.27835099D-03 -0.30233935D-03  0.23988357D-04  0.81235696D-04
 -0.11753874D-02 -0.12923963D-03 -0.95692526D-02 -0.11635592D-02 -0.22005532D-03
  0.19018440D-01  0.27497061D-02 -0.14076320D-02  0.96893183D-02  0.74097167D-03
  0.20677980D-02  0.37782252D-03 -0.41954520D-03 -0.25628860D-04 -0.30444265D-04
  0.63602176D-03  0.23133383D-03 -0.12396014D-03  0.62261384D-03 -0.15444725D-03
  0.21529294D-03 -0.32754142D-03  0.97147353D-02  0.17520925D-01  0.25834594D-01
  0.23818824D-01  0.44217055D-02  0.21748097D-04  0.21941677D-01  0.60203131D-02
  0.40150372D-02  0.11880381D-01  0.42730618D-02  0.27228642D-02  0.18671708D-02
  0.96063069D-04 -0.56522216D-05 -0.27757061D-02  0.22876826D-02  0.48802352D-03
  0.10601431D-01  0.77557154D-02  0.61694314D-02 -0.12307357D-03  0.55430481D-04
  0.67643086D-04  0.11364341D-02  0.69123076D-03  0.15823429D-03 -0.43383149D-02
 -0.78243296D-02 -0.11536969D-01 -0.25319039D-02  0.12222066D-02  0.70365032D-04
  0.21240185D-01  0.13631665D-02 -0.62382220D-02  0.11429647D-01 -0.14461479D-02
 -0.14609093D-02  0.17820057D-02 -0.22633749D-03 -0.72015903D-04 -0.68964368D-04
  0.10302281D-02 -0.96126373D-03 -0.10311262D-01  0.83470606D-02  0.16093992D-02
 -0.83216597D-04  0.11076671D-03 -0.27550111D-04 -0.10352076D-02  0.66441530D-03
  0.70038543D-04
MO    3     MO 0.0        OCC NO =    2.0000000  ORB. ENERGY =    0.000000
  0.20978520D+00  0.39100513D+00  0.66300414D+00  0.10033863D+01  0.12516453D+01
  0.10740979D+01  0.41132242D+00  0.38298842D-03  0.41092144D-02  0.15147338D-01
  0.44289928D-01  0.53371517D-01 -0.64291648D-01 -0.15254872D-01 -0.17005152D-01
 -0.12990046D-02  0.47300208D+00  0.45865291D+00  0.30940454D+00  0.12674260D+01
  0.12289769D+01  0.82906054D+00 -0.48128120D-01 -0.46668087D-01 -0.31482016D-01
  0.10685216D+00  0.26531853D+00 -0.10282959D-01  0.17798608D-01  0.26748699D-01
 -0.24955245D-02  0.57215680D-03  0.29116814D-03 -0.21223920D-04  0.40234593D-02
 -0.68808821D-02  0.28574229D-02  0.87081294D-02 -0.18793122D-01 -0.11855883D+00
  0.11435833D-02 -0.14274606D-02  0.28387733D-03  0.13302085D-02 -0.49473566D-02
 -0.16947106D-01 -0.37383856D-04  0.29417534D-04  0.79663222D-05 -0.17436924D-04
 -0.36696416D-03  0.45117700D-03 -0.27595435D-02  0.56362372D-02  0.38384989D-04
  0.54785054D-02 -0.13546612D-01 -0.61302192D-03  0.28001251D-02 -0.33620994D-02
  0.49786696D-03 -0.16686247D-02 -0.11929189D-03  0.91414147D-04  0.35012523D-04
  0.19051476D-03 -0.87775795D-03 -0.54421300D-04  0.16736089D-03  0.60351551D-03
 -0.50616271D-04 -0.35909351D-03 -0.35272583D-01 -0.63615556D-01 -0.93801101D-01
 -0.60361069D-01 -0.61356764D-02  0.13461925D-03  0.88516733D-02 -0.20693321D-01
 -0.27322302D-01  0.44067087D-02 -0.62300262D-02 -0.10075275D-01  0.56081612D-03
  0.40452075D-03 -0.15493613D-03  0.64630497D-02 -0.30882596D-02 -0.33747901D-02
  0.49634280D-02  0.41231148D-02 -0.19958570D-01  0.22864591D-04  0.17730903D-03
 -0.20017362D-03  0.37478303D-03  0.25080971D-03 -0.45436825D-03  0.29039500D-01
  0.52373934D-01  0.77225335D-01  0.56886826D-01  0.83997451D-02 -0.89361378D-04
  0.45499909D-02 -0.11737263D-01  0.19284710D-01  0.26135232D-02 -0.56500443D-02
  0.88772258D-02  0.50708388D-03  0.16056660D-03  0.18104603D-03 -0.51264392D-02
  0.16958784D-02  0.34305608D-02 -0.18256221D-02  0.10411782D-02 -0.14688485D-01
 -0.17042703D-03 -0.56851743D-04  0.22727877D-03 -0.24666499D-03  0.13443022D-03
 -0.69006720D-03
MO    4     MO 0.0        OCC NO =    2.0000000  ORB. ENERGY =    0.000000
  0.33892879D+00  0.63170753D+00  0.10711489D+01  0.16210699D+01  0.20221570D+01
  0.17353115D+01  0.66453213D+00  0.13295813D-02  0.14265535D-01  0.52585446D-01
  0.15375676D+00  0.18528437D+00 -0.22319466D+00 -0.97027380D-01 -0.78759791D-01
 -0.67057297D-02 -0.14942501D+00 -0.14489199D+00 -0.97743283D-01 -0.56311347D+00
 -0.54603065D+00 -0.36834905D+00 -0.45112928D+00 -0.43744365D+00 -0.29509690D+00
 -0.34487661D-01 -0.11887600D+00 -0.93214328D-01 -0.58252945D-02 -0.12362302D-01
 -0.14248036D-01 -0.20428711D-03 -0.13947935D-03 -0.27483180D-03  0.17279455D-02
 -0.12142750D-01  0.10414804D-01 -0.38348254D-02  0.61038854D-02  0.52874682D-01
  0.28675341D-02 -0.55626239D-02  0.26950898D-02 -0.63497640D-03  0.20473843D-02
  0.86518799D-02  0.30643134D-03 -0.44702219D-03  0.14059085D-03  0.48504765D-05
  0.17013949D-03 -0.10638079D-03  0.98347801D-03 -0.23616888D-02 -0.20188226D-02
 -0.25572938D-02  0.63434693D-02  0.15586803D-02 -0.39314024D-03  0.74159700D-03
  0.44977874D-02  0.90158544D-03  0.74772859D-04 -0.27498123D-04 -0.11504265D-03
 -0.12751986D-03  0.45800250D-03 -0.31234215D-03 -0.96798721D-04 -0.37550813D-03
  0.65747011D-03  0.17784261D-03  0.79313939D-02  0.14304595D-01  0.21092118D-01
  0.32412902D-01  0.80338247D-02  0.51269430D-04 -0.24042304D-02 -0.39122765D-03
 -0.24706815D-02 -0.15784289D-02  0.50340733D-02  0.17967289D-02 -0.20156555D-03
  0.19901805D-03 -0.21248932D-03 -0.14054176D-02  0.16809634D-02 -0.27554584D-03
 -0.15576739D-02 -0.11668855D-02  0.29048360D-02 -0.10490185D-03  0.74226435D-04
  0.30675420D-04 -0.14848374D-03 -0.10744190D-03  0.15772315D-03 -0.19345963D-01
 -0.34891241D-01 -0.51447115D-01 -0.17888169D-01  0.19678986D-02  0.15781512D-03
 -0.67545043D-03  0.12743311D-01 -0.21772518D-01 -0.83263314D-03 -0.44282949D-03
 -0.59669930D-02 -0.18149773D-03 -0.52783630D-03 -0.30332678D-03  0.31846235D-02
  0.18993961D-03 -0.33745631D-02  0.34309301D-03  0.93960288D-04  0.10535079D-01
 -0.38356486D-04  0.21018568D-03 -0.17182920D-03  0.95357563D-04 -0.57597154D-04
  0.28908678D-03
MO    5     MO 0.0        OCC NO =    2.0000000  ORB. ENERGY =    0.000000
  0.28937277D+00  0.53934326D+00  0.91453228D+00  0.13840474D+01  0.17264900D+01
  0.14815853D+01  0.56736845D+00 -0.94065314D-03 -0.10092591D-01 -0.37203190D-01
 -0.10877995D+00 -0.13108512D+00  0.15790592D+00  0.13165604D+00  0.58308940D-01
  0.50671265D-02  0.56623296D+00  0.54905550D+00  0.37038960D+00 -0.38734546D+00
 -0.37559480D+00 -0.25337403D+00  0.39784986D+00  0.38578053D+00  0.26024527D+00
  0.12823305D+00 -0.81322553D-01  0.85648369D-01  0.21273448D-01 -0.81915026D-02
  0.13433854D-01  0.70099968D-03 -0.91446518D-04  0.26818071D-03 -0.21135020D-02
  0.13483516D-01 -0.11370014D-01 -0.44559274D-02 -0.23005124D-01  0.36866656D-01
 -0.12080550D-02  0.39749124D-02 -0.27668574D-02 -0.53306497D-03 -0.62541682D-02
  0.50384033D-02 -0.79635470D-04  0.23234853D-03 -0.15271306D-03  0.33518767D-04
 -0.44088145D-03 -0.12283086D-03 -0.34699673D-02 -0.18324008D-02  0.20630805D-02
  0.75384371D-02  0.43565370D-02 -0.17115193D-02  0.28714648D-02  0.11406655D-02
 -0.44777222D-02  0.56993367D-03 -0.14032375D-03 -0.18653090D-04 -0.55422657D-04
  0.21072664D-03  0.23400151D-03 -0.24225846D-03  0.21024461D-03 -0.17804224D-03
  0.40852643D-03 -0.80477871D-04  0.14433124D-01  0.26030733D-01  0.38382300D-01
  0.12318372D-01 -0.19372711D-02 -0.11684719D-03  0.68404220D-02  0.10351160D-01
  0.17418900D-01  0.41377312D-02 -0.71920826D-03  0.45611127D-02  0.67523550D-03
 -0.43885062D-03  0.25512751D-03 -0.18156736D-02 -0.61917144D-03  0.24348451D-02
  0.36250825D-02  0.23751296D-02  0.62580471D-02  0.43643229D-04 -0.17727699D-03
  0.13363376D-03  0.41659635D-03  0.25390694D-03  0.15640312D-03 -0.61352696D-02
 -0.11065211D-01 -0.16315648D-01 -0.23687862D-01 -0.62835746D-02 -0.39262835D-04
  0.74987682D-02  0.15913483D-03  0.26621083D-02  0.42992886D-02  0.41373687D-02
 -0.12425759D-02  0.64790710D-03  0.24672210D-03  0.15057409D-03  0.16584155D-02
 -0.19585836D-02  0.30016816D-03 -0.41294888D-02  0.32660487D-02  0.44157577D-02
  0.10350810D-03 -0.10439145D-03  0.88334791D-06 -0.39800654D-03  0.26722504D-03
  0.19890462D-03
END DATA
 TOTAL ENERGY =    -76.465205342093 THE VIRIAL(-V/T)=   2.00667960
