 81
GAUSSIAN              5 MOL ORBITALS    126 PRIMITIVES        3 NUCLEI   B3LYP
  O    1    (CENTRE  1)   0.00000000  0.09448631  0.00815606  CHARGE =  8.0
  H    2    (CENTRE  2)   0.00000000 -1.44255835 -1.09730160  CHARGE =  1.0
  H    3    (CENTRE  3)   0.00000000  1.44255835 -1.00281530  CHARGE =  1.0
CENTRE ASSIGNMENTS    1  1  1  1  1  1  1  1  1  1  1  1  1  1  1  1  1  1  1  1
CENTRE ASSIGNMENTS    1  1  1  1  1  1  1  1  1  1  1  1  1  1  1  1  1  1  1  1
CENTRE ASSIGNMENTS    1  1  1  1  1  1  1  1  1  1  1  1  1  1  1  1  1  1  1  1
CENTRE ASSIGNMENTS    1  1  1  1  1  1  1  1  1  1  1  1  2  2  2  2  2  2  2  2
CENTRE ASSIGNMENTS    2  2  2  2  2  2  2  2  2  2  2  2  2  2  2  2  2  2  2  3
CENTRE ASSIGNMENTS    3  3  3  3  3  3  3  3  3  3  3  3  3  3  3  3  3  3  3  3
CENTRE ASSIGNMENTS    3  3  3  3  3  3
TYPE ASSIGNMENTS      1  1  1  1  1  1  1  1  1  1  1  1  1  1  1  1  2  2  2  3
TYPE ASSIGNMENTS      3  3  4  4  4  2  3  4  2  3  4  2  3  4  5  6  7  8  9 10
TYPE ASSIGNMENTS      5  6  7  8  9 10  5  6  7  8  9 10 11 12 13 17 14 15 18 19
TYPE ASSIGNMENTS     16 20 11 12 13 17 14 15 18 19 16 20  1  1  1  1  1  1  2  3
TYPE ASSIGNMENTS      4  2  3  4  2  3  4  5  6  7  8  9 10  5  6  7  8  9 10  1
TYPE ASSIGNMENTS      1  1  1  1  1  2  3  4  2  3  4  2  3  4  5  6  7  8  9 10
TYPE ASSIGNMENTS      5  6  7  8  9 10
EXPONENTS  0.1533000D+05 0.2299000D+04 0.5224000D+03 0.1473000D+03 0.4755000D+02
EXPONENTS  0.1676000D+02 0.6207000D+01 0.5224000D+03 0.1473000D+03 0.4755000D+02
EXPONENTS  0.1676000D+02 0.6207000D+01 0.6882000D+00 0.1752000D+01 0.2384000D+00
EXPONENTS  0.7376000D-01 0.3446000D+02 0.7749000D+01 0.2280000D+01 0.3446000D+02
EXPONENTS  0.7749000D+01 0.2280000D+01 0.3446000D+02 0.7749000D+01 0.2280000D+01
EXPONENTS  0.7156000D+00 0.7156000D+00 0.7156000D+00 0.2140000D+00 0.2140000D+00
EXPONENTS  0.2140000D+00 0.5974000D-01 0.5974000D-01 0.5974000D-01 0.2314000D+01
EXPONENTS  0.2314000D+01 0.2314000D+01 0.2314000D+01 0.2314000D+01 0.2314000D+01
EXPONENTS  0.6450000D+00 0.6450000D+00 0.6450000D+00 0.6450000D+00 0.6450000D+00
EXPONENTS  0.6450000D+00 0.2140000D+00 0.2140000D+00 0.2140000D+00 0.2140000D+00
EXPONENTS  0.2140000D+00 0.2140000D+00 0.1428000D+01 0.1428000D+01 0.1428000D+01
EXPONENTS  0.1428000D+01 0.1428000D+01 0.1428000D+01 0.1428000D+01 0.1428000D+01
EXPONENTS  0.1428000D+01 0.1428000D+01 0.5000000D+00 0.5000000D+00 0.5000000D+00
EXPONENTS  0.5000000D+00 0.5000000D+00 0.5000000D+00 0.5000000D+00 0.5000000D+00
EXPONENTS  0.5000000D+00 0.5000000D+00 0.3387000D+02 0.5095000D+01 0.1159000D+01
EXPONENTS  0.3258000D+00 0.1027000D+00 0.2526000D-01 0.1407000D+01 0.1407000D+01
EXPONENTS  0.1407000D+01 0.3880000D+00 0.3880000D+00 0.3880000D+00 0.1020000D+00
EXPONENTS  0.1020000D+00 0.1020000D+00 0.1057000D+01 0.1057000D+01 0.1057000D+01
EXPONENTS  0.1057000D+01 0.1057000D+01 0.1057000D+01 0.2470000D+00 0.2470000D+00
EXPONENTS  0.2470000D+00 0.2470000D+00 0.2470000D+00 0.2470000D+00 0.3387000D+02
EXPONENTS  0.5095000D+01 0.1159000D+01 0.3258000D+00 0.1027000D+00 0.2526000D-01
EXPONENTS  0.1407000D+01 0.1407000D+01 0.1407000D+01 0.3880000D+00 0.3880000D+00
EXPONENTS  0.3880000D+00 0.1020000D+00 0.1020000D+00 0.1020000D+00 0.1057000D+01
EXPONENTS  0.1057000D+01 0.1057000D+01 0.1057000D+01 0.1057000D+01 0.1057000D+01
EXPONENTS  0.2470000D+00 0.2470000D+00 0.2470000D+00 0.2470000D+00 0.2470000D+00
EXPONENTS  0.2470000D+00
MO    1     MO 0.0        OCC NO =    2.0000000  ORB. ENERGY =    0.000000
  0.18077844D-01  0.33694128D-01  0.57133129D-01  0.86464915D-01  0.10785817D+00
  0.92558354D-01  0.35444932D-01 -0.34981029D-03 -0.37532348D-02 -0.13835130D-01
 -0.40453109D-01 -0.48747964D-01  0.58722088D-01  0.38010177D-01 -0.32969939D-01
 -0.74808672D-02 -0.13069916D+00 -0.12673422D+00 -0.85494155D-01 -0.87835797D-01
 -0.85171176D-01 -0.57455972D-01 -0.14901657D+01 -0.14449595D+01 -0.97476111D+00
 -0.29466901D-01 -0.26573416D-01 -0.32301968D+00 -0.48049549D-02 -0.61930585D-02
 -0.37747122D-01 -0.15247750D-03 -0.77057510D-04 -0.75612657D-03 -0.45831536D-01
  0.67759443D-02  0.39055592D-01 -0.66039829D-03  0.54264366D-02 -0.78709259D-03
 -0.63217723D-02 -0.49087175D-02  0.11230490D-01  0.87893077D-04  0.13235764D-02
  0.59510546D-02  0.87262044D-03 -0.14531449D-02  0.58052448D-03  0.30519310D-04
  0.83845841D-04  0.13165756D-02  0.77943526D-03 -0.12241204D-02 -0.39553658D-03
 -0.17041215D-02  0.28493749D-02  0.18848822D-01 -0.63418425D-03  0.82298629D-03
 -0.17662212D-01  0.98204286D-04  0.19573875D-04  0.34201755D-03 -0.67687994D-03
 -0.24178319D-04  0.57851169D-03 -0.13723615D-04 -0.34543306D-04 -0.16045644D-02
  0.20443634D-02 -0.11872421D-03  0.32328570D-01  0.58305907D-01  0.85972027D-01
  0.57592884D-01  0.90655928D-02  0.92784331D-04 -0.16471775D-02  0.27222099D-01
  0.36163707D-02 -0.90183517D-03  0.11847515D-01  0.70102881D-03 -0.14337703D-03
  0.21521725D-03 -0.94049548D-03 -0.38164619D-02  0.66698288D-02 -0.28533669D-02
 -0.84382013D-03 -0.58842322D-03  0.74834927D-02 -0.25248216D-03  0.27846559D-03
 -0.25983429D-04 -0.86892362D-04 -0.47822195D-04 -0.13957310D-03  0.30885324D-01
  0.55702953D-01  0.82133972D-01  0.57836889D-01  0.65534242D-02  0.76900735D-04
 -0.21422999D-02 -0.36424065D-01  0.39239847D-02 -0.11610018D-02 -0.12782190D-01
 -0.17114615D-02 -0.17060132D-03  0.23318344D-04 -0.12962060D-02 -0.44559732D-02
  0.88104044D-02 -0.43544313D-02  0.10538829D-02 -0.77192970D-03 -0.98880381D-02
  0.15496851D-03  0.13865577D-03 -0.29362428D-03  0.11396505D-03 -0.75061676D-04
  0.11959146D-02
MO    2     MO 0.0        OCC NO =    2.0000000  ORB. ENERGY =    0.000000
 -0.32504990D+00 -0.60583957D+00 -0.10272861D+01 -0.15546883D+01 -0.19393511D+01
 -0.16642518D+01 -0.63732002D+00 -0.37508176D-04 -0.40243812D-03 -0.14834627D-02
 -0.43375578D-02 -0.52269681D-02  0.62964370D-02 -0.33683436D-01 -0.11632635D-01
 -0.15966425D-02  0.11943724D+01  0.11581394D+01  0.78127403D+00  0.50357302D+00
  0.48829643D+00  0.32940189D+00 -0.21294558D+00 -0.20648558D+00 -0.13929395D+00
  0.26927834D+00  0.99932619D-01 -0.43574994D-01  0.43909276D-01  0.76336387D-02
 -0.37796064D-02  0.13933901D-02  0.49194644D-04 -0.74173190D-04 -0.46036692D-02
 -0.44910909D-03  0.50527783D-02  0.60349393D-02 -0.49588583D-01 -0.45507734D-01
 -0.27592327D-03 -0.12365771D-02  0.15125004D-02 -0.80319617D-03 -0.12095281D-01
 -0.40389686D-02  0.29179247D-03 -0.33374507D-03  0.41952601D-04 -0.27889560D-03
 -0.76621118D-03  0.85320577D-03 -0.71227387D-02  0.23486593D-02 -0.60122231D-03
  0.15572829D-01 -0.39580264D-02  0.12448095D-02  0.57953866D-02 -0.30879515D-02
  0.55885738D-03 -0.89742343D-03 -0.17887258D-03  0.82841432D-04 -0.81377704D-04
  0.22094952D-03 -0.15725812D-03 -0.16574759D-04  0.31566822D-03 -0.91266174D-04
  0.26070787D-03  0.10849414D-02 -0.88691222D-02 -0.15995827D-01 -0.23585838D-01
 -0.15915595D-01 -0.18904827D-02  0.45662639D-04  0.15052456D-01 -0.37179416D-02
 -0.82270418D-02  0.82412698D-02 -0.10902901D-02 -0.35167190D-02  0.13102270D-02
  0.42399985D-04 -0.21917213D-03  0.14801389D-02 -0.22919915D-03 -0.12509397D-02
  0.77111090D-02  0.53772071D-02 -0.49403774D-02  0.20140890D-04  0.31486547D-04
 -0.51627437D-04  0.79405130D-03  0.43701513D-03 -0.35528096D-03  0.17924748D-01
  0.32328021D-01  0.47667648D-01  0.36897396D-01  0.43377007D-02 -0.88769834D-05
  0.19577049D-01 -0.15785586D-01  0.13263153D-01  0.10609621D-01 -0.59337300D-02
  0.48040736D-02  0.15590116D-02  0.54038061D-04 -0.79630768D-04 -0.46133262D-02
  0.39242932D-02  0.68903295D-03 -0.96307326D-02  0.70541504D-02 -0.13083370D-01
  0.69217032D-04 -0.94979236D-04  0.25762204D-04 -0.10414505D-02  0.68593856D-03
  0.11886706D-03
MO    3     MO 0.0        OCC NO =    2.0000000  ORB. ENERGY =    0.000000
 -0.15064998D+00 -0.28078679D+00 -0.47611346D+00 -0.72054709D+00 -0.89882570D+00
 -0.77132617D+00 -0.29537695D+00 -0.15795663D-04 -0.16947710D-03 -0.62472449D-03
 -0.18266577D-02 -0.22012114D-02  0.26515924D-02 -0.14676136D-01 -0.96833083D-02
 -0.81498589D-03 -0.11667468D+01 -0.11313519D+01 -0.76320330D+00  0.10275157D+01
  0.99634462D+00  0.67212819D+00 -0.61501219D-01 -0.59635495D-01 -0.40229753D-01
 -0.26304999D+00  0.20865549D+00 -0.80230935D-02 -0.42893662D-01  0.17665071D-01
  0.16880811D-02 -0.13611613D-02  0.14838202D-03  0.31885773D-04 -0.19136090D-02
  0.15305821D-02  0.38302683D-03 -0.58953522D-02  0.48441608D-01 -0.94591341D-01
  0.88023679D-03 -0.12627921D-02  0.38255531D-03  0.78461839D-03  0.11815520D-01
 -0.10645362D-01  0.39277626D-03 -0.35193073D-03 -0.40845536D-04  0.27244480D-03
  0.74848886D-03  0.12198202D-02  0.69579910D-02  0.49953111D-02 -0.37683612D-03
 -0.15212633D-01 -0.99083626D-02 -0.43977961D-03 -0.56613404D-02 -0.50775706D-02
  0.15702880D-02  0.87666619D-03  0.17473529D-03  0.93242734D-04 -0.18657830D-03
 -0.21583900D-03 -0.39063202D-03 -0.33422851D-03 -0.30836687D-03  0.11090382D-03
  0.89396340D-03 -0.10598469D-02 -0.24992598D-01 -0.45075180D-01 -0.66463326D-01
 -0.45058678D-01 -0.59325804D-02  0.80499666D-04 -0.14704295D-01 -0.13317870D-01
 -0.16413259D-01 -0.80506507D-02 -0.50466506D-02 -0.69358812D-02 -0.12799217D-02
  0.52464934D-04 -0.19856498D-03  0.43694540D-02 -0.26556023D-02 -0.17138517D-02
 -0.75327525D-02 -0.52528333D-02 -0.12853280D-01  0.98696447D-04  0.51031344D-05
 -0.10379958D-03 -0.77568504D-03 -0.42690705D-03 -0.66045696D-03  0.29040498D-01
  0.52375734D-01  0.77227989D-01  0.56744835D-01  0.59001537D-02 -0.65359454D-04
 -0.19124235D-01 -0.21273926D-01  0.24916416D-01 -0.10364222D-01 -0.66934485D-02
  0.87316319D-02 -0.15229519D-02  0.29860051D-03  0.39591713D-04 -0.63511886D-02
  0.39401275D-02  0.24110611D-02  0.94079756D-02 -0.68909892D-02 -0.18976508D-01
  0.15284616D-03 -0.27929880D-03  0.12645264D-03  0.10173620D-02 -0.67007293D-03
  0.10066797D-03
MO    4     MO 0.0        OCC NO =    2.0000000  ORB. ENERGY =    0.000000
  0.35866409D+00  0.66849089D+00  0.11335202D+01  0.17154624D+01  0.21399041D+01
  0.18363561D+01  0.70322681D+00  0.74240408D-03  0.79655086D-02  0.29362364D-01
  0.85853831D-01  0.10345804D+00 -0.12462617D+00 -0.33286758D-01 -0.47792533D-01
 -0.39600749D-02  0.56332893D+00  0.54623957D+00  0.36848999D+00  0.83703698D+00
  0.81164430D+00  0.54753045D+00 -0.29257574D+00 -0.28370006D+00 -0.19138238D+00
  0.12700585D+00  0.17397121D+00 -0.57941395D-01  0.20709928D-01  0.15761892D-01
 -0.71520615D-02  0.65719618D-03  0.15463928D-03 -0.14558338D-03 -0.15005582D-02
 -0.55257966D-02  0.70263548D-02  0.28463953D-02 -0.23388588D-01 -0.79681733D-01
  0.20995180D-02 -0.40997222D-02  0.20002042D-02 -0.37882963D-03 -0.57047719D-02
 -0.11071442D-01  0.42963302D-03 -0.49322749D-03  0.63594469D-04 -0.13154186D-03
 -0.36138556D-03  0.75626922D-03 -0.33594588D-02  0.41831543D-02 -0.81537057D-03
  0.73449667D-02 -0.96827063D-02  0.13582187D-02  0.27334096D-02 -0.28667565D-02
  0.10878930D-02 -0.42327217D-03 -0.84365731D-04  0.97864389D-04 -0.24306609D-03
  0.10421143D-03 -0.44603451D-03 -0.52351129D-03  0.14888576D-03  0.15244134D-03
  0.12527096D-02  0.51171550D-03 -0.23893695D-01 -0.43093262D-01 -0.63540990D-01
 -0.33551501D-01 -0.18976679D-02  0.13825615D-03  0.70995311D-02 -0.14768106D-01
 -0.19620238D-01  0.38870170D-02 -0.25481251D-02 -0.67669409D-02  0.61797208D-03
  0.33185373D-03 -0.28500043D-03  0.42179907D-02 -0.18996934D-02 -0.23182973D-02
  0.36369652D-02  0.25361741D-02 -0.13224760D-01  0.34388079D-05  0.14591375D-03
 -0.14935256D-03  0.37451643D-03  0.20611935D-03 -0.52980926D-03  0.18710174D-01
  0.33744569D-01  0.49756347D-01  0.45404191D-01  0.64732457D-02 -0.24796226D-04
  0.92335676D-02 -0.95363156D-02  0.10230690D-01  0.50040560D-02 -0.48769322D-02
  0.43501188D-02  0.73531198D-03  0.21084907D-03 -0.23997886D-03 -0.28431173D-02
  0.20044180D-02  0.83869930D-03 -0.45423609D-02  0.33271089D-02 -0.78600149D-02
  0.10423725D-03 -0.17617200D-03  0.71934751D-04 -0.49120294D-03  0.32352476D-03
  0.21090233D-03
MO    5     MO 0.0        OCC NO =    2.0000000  ORB. ENERGY =    0.000000
  0.44578882D-01  0.83087707D-01  0.14088688D+00  0.21321732D+00  0.26597180D+00
  0.22824337D+00  0.87405085D-01 -0.15266560D-02 -0.16380018D-01 -0.60379829D-01
 -0.17654708D+00 -0.21274781D+00  0.25627729D+00  0.16337558D+00  0.87954793D-01
  0.77077457D-02  0.28661886D+00  0.27792388D+00  0.18748581D+00  0.39910053D+00
  0.38699326D+00  0.26106337D+00  0.53252933D+00  0.51637431D+00  0.34834306D+00
  0.64619924D-01  0.78903466D-01  0.11550361D+00  0.10537104D-01  0.62965148D-02
  0.19465805D-01  0.33437803D-03  0.59952048D-04  0.38022361D-03 -0.65558741D-02
  0.22052480D-01 -0.15496606D-01  0.14482313D-02 -0.11899993D-01 -0.39169817D-01
 -0.22761971D-02  0.58317929D-02 -0.35555958D-02 -0.19274656D-03 -0.29025585D-02
 -0.20296887D-02 -0.63542171D-04  0.26490355D-03 -0.20136138D-03 -0.66927820D-04
 -0.18387111D-03  0.52412061D-03 -0.17092753D-02  0.17675247D-02  0.23935499D-02
  0.37370812D-02 -0.35107010D-02 -0.10518368D-02  0.13907447D-02 -0.17918731D-02
 -0.61288128D-02 -0.21535870D-03 -0.42924849D-04 -0.20281099D-05 -0.25132967D-03
  0.53022240D-04  0.20560839D-03 -0.26881763D-03  0.75752308D-04 -0.19952406D-03
  0.10228066D-02  0.26035821D-03 -0.30761124D-02 -0.55478953D-02 -0.81803684D-02
 -0.24893848D-01 -0.84083864D-02 -0.92011832D-04  0.36122048D-02  0.27187036D-02
  0.76803685D-02  0.19776942D-02 -0.55895068D-02  0.40096964D-04  0.31442101D-03
 -0.51721013D-03  0.23628976D-03  0.15884678D-02 -0.30799544D-02  0.14914866D-02
  0.18504692D-02  0.12903923D-02 -0.23302596D-02  0.19594541D-03 -0.27023628D-03
  0.74290868D-04  0.19055203D-03  0.10487247D-03 -0.23038769D-03  0.20831801D-01
  0.37571011D-01  0.55398433D-01  0.14372262D-01 -0.37920893D-02 -0.14526684D-03
  0.46979916D-02 -0.18686588D-01  0.27840536D-01  0.25460379D-02  0.12358552D-02
  0.61946939D-02  0.37412295D-03  0.58656266D-03  0.37358426D-03 -0.30737028D-02
 -0.23575066D-03  0.33094534D-02 -0.23111298D-02  0.16928159D-02 -0.11788997D-01
  0.19955508D-03 -0.33167887D-03  0.13212379D-03 -0.24992153D-03  0.16460773D-03
  0.45287154D-04
END DATA
 TOTAL ENERGY =    -76.459164065394 THE VIRIAL(-V/T)=   2.00484618
