 81
GAUSSIAN              5 MOL ORBITALS    126 PRIMITIVES        3 NUCLEI   B3LYP
  O    1    (CENTRE  1)   0.00000000 -0.09448631  0.00815606  CHARGE =  8.0
  H    2    (CENTRE  2)   0.00000000 -1.44255835 -1.09730160  CHARGE =  1.0
  H    3    (CENTRE  3)   0.00000000  1.44255835 -1.00281530  CHARGE =  1.0
CENTRE ASSIGNMENTS    1  1  1  1  1  1  1  1  1  1  1  1  1  1  1  1  1  1  1  1
CENTRE ASSIGNMENTS    1  1  1  1  1  1  1  1  1  1  1  1  1  1  1  1  1  1  1  1
CENTRE ASSIGNMENTS    1  1  1  1  1  1  1  1  1  1  1  1  1  1  1  1  1  1  1  1
CENTRE ASSIGNMENTS    1  1  1  1  1  1  1  1  1  1  1  1  2  2  2  2  2  2  2  2
CENTRE ASSIGNMENTS    2  2  2  2  2  2  2  2  2  2  2  2  2  2  2  2  2  2  2  3
CENTRE ASSIGNMENTS    3  3  3  3  3  3  3  3  3  3  3  3  3  3  3  3  3  3  3  3
CENTRE ASSIGNMENTS    3  3  3  3  3  3
TYPE ASSIGNMENTS      1  1  1  1  1  1  1  1  1  1  1  1  1  1  1  1  2  2  2  3
TYPE ASSIGNMENTS      3  3  4  4  4  2  3  4  2  3  4  2  3  4  5  6  7  8  9 10
TYPE ASSIGNMENTS      5  6  7  8  9 10  5  6  7  8  9 10 11 12 13 17 14 15 18 19
TYPE ASSIGNMENTS     16 20 11 12 13 17 14 15 18 19 16 20  1  1  1  1  1  1  2  3
TYPE ASSIGNMENTS      4  2  3  4  2  3  4  5  6  7  8  9 10  5  6  7  8  9 10  1
TYPE ASSIGNMENTS      1  1  1  1  1  2  3  4  2  3  4  2  3  4  5  6  7  8  9 10
TYPE ASSIGNMENTS      5  6  7  8  9 10
EXPONENTS  0.1533000D+05 0.2299000D+04 0.5224000D+03 0.1473000D+03 0.4755000D+02
EXPONENTS  0.1676000D+02 0.6207000D+01 0.5224000D+03 0.1473000D+03 0.4755000D+02
EXPONENTS  0.1676000D+02 0.6207000D+01 0.6882000D+00 0.1752000D+01 0.2384000D+00
EXPONENTS  0.7376000D-01 0.3446000D+02 0.7749000D+01 0.2280000D+01 0.3446000D+02
EXPONENTS  0.7749000D+01 0.2280000D+01 0.3446000D+02 0.7749000D+01 0.2280000D+01
EXPONENTS  0.7156000D+00 0.7156000D+00 0.7156000D+00 0.2140000D+00 0.2140000D+00
EXPONENTS  0.2140000D+00 0.5974000D-01 0.5974000D-01 0.5974000D-01 0.2314000D+01
EXPONENTS  0.2314000D+01 0.2314000D+01 0.2314000D+01 0.2314000D+01 0.2314000D+01
EXPONENTS  0.6450000D+00 0.6450000D+00 0.6450000D+00 0.6450000D+00 0.6450000D+00
EXPONENTS  0.6450000D+00 0.2140000D+00 0.2140000D+00 0.2140000D+00 0.2140000D+00
EXPONENTS  0.2140000D+00 0.2140000D+00 0.1428000D+01 0.1428000D+01 0.1428000D+01
EXPONENTS  0.1428000D+01 0.1428000D+01 0.1428000D+01 0.1428000D+01 0.1428000D+01
EXPONENTS  0.1428000D+01 0.1428000D+01 0.5000000D+00 0.5000000D+00 0.5000000D+00
EXPONENTS  0.5000000D+00 0.5000000D+00 0.5000000D+00 0.5000000D+00 0.5000000D+00
EXPONENTS  0.5000000D+00 0.5000000D+00 0.3387000D+02 0.5095000D+01 0.1159000D+01
EXPONENTS  0.3258000D+00 0.1027000D+00 0.2526000D-01 0.1407000D+01 0.1407000D+01
EXPONENTS  0.1407000D+01 0.3880000D+00 0.3880000D+00 0.3880000D+00 0.1020000D+00
EXPONENTS  0.1020000D+00 0.1020000D+00 0.1057000D+01 0.1057000D+01 0.1057000D+01
EXPONENTS  0.1057000D+01 0.1057000D+01 0.1057000D+01 0.2470000D+00 0.2470000D+00
EXPONENTS  0.2470000D+00 0.2470000D+00 0.2470000D+00 0.2470000D+00 0.3387000D+02
EXPONENTS  0.5095000D+01 0.1159000D+01 0.3258000D+00 0.1027000D+00 0.2526000D-01
EXPONENTS  0.1407000D+01 0.1407000D+01 0.1407000D+01 0.3880000D+00 0.3880000D+00
EXPONENTS  0.3880000D+00 0.1020000D+00 0.1020000D+00 0.1020000D+00 0.1057000D+01
EXPONENTS  0.1057000D+01 0.1057000D+01 0.1057000D+01 0.1057000D+01 0.1057000D+01
EXPONENTS  0.2470000D+00 0.2470000D+00 0.2470000D+00 0.2470000D+00 0.2470000D+00
EXPONENTS  0.2470000D+00
MO    1     MO 0.0        OCC NO =    2.0000000  ORB. ENERGY =    0.000000
 -0.32562882D-01 -0.60691858D-01 -0.10291157D+00 -0.15574572D+00 -0.19428051D+00
 -0.16672159D+00 -0.63845510D-01  0.45415668D-04  0.48728032D-03  0.17962070D-02
  0.52520039D-02  0.63289201D-02 -0.76238549D-02 -0.89511028D-02  0.45245641D-01
  0.77298611D-02  0.22239423D+00  0.21564760D+00  0.14547460D+00  0.69828804D+00
  0.67710451D+00  0.45677070D+00  0.13838445D+01  0.13418636D+01  0.90521328D+00
  0.50192874D-01  0.13872434D+00  0.29733917D+00  0.82004382D-02  0.10157808D-01
  0.34414863D-01  0.26063072D-03  0.61777124D-04  0.68768450D-03  0.38422508D-01
 -0.15896101D-03 -0.38263547D-01 -0.80459185D-04 -0.91974513D-02 -0.70961481D-01
  0.45061698D-02  0.60079275D-02 -0.10514097D-01  0.17575641D-03 -0.22829251D-02
 -0.49534288D-02 -0.91022693D-03  0.13507730D-02 -0.44054605D-03  0.31012158D-04
 -0.14381947D-03  0.15375544D-02 -0.13363775D-02  0.27742702D-02  0.72784308D-03
  0.29104003D-02 -0.59203695D-02 -0.16074238D-01  0.10987320D-02 -0.24024411D-02
  0.13890709D-01  0.25615598D-03 -0.36229947D-04  0.30574933D-03  0.61045969D-03
  0.50729171D-04 -0.16165826D-03  0.13111218D-03  0.57960669D-04 -0.75558972D-03
 -0.19624912D-02 -0.94544600D-04 -0.46046511D-01 -0.83046779D-01 -0.12245243D+00
 -0.90091503D-01 -0.11428355D-01 -0.31532848D-04  0.33808609D-02 -0.39695445D-01
 -0.19614926D-01  0.18372463D-02 -0.15608205D-01 -0.60095581D-02  0.27629835D-03
  0.19783788D-04  0.97421355D-03  0.78320379D-02 -0.87052135D-02  0.87317552D-03
  0.16163750D-02  0.12926391D-02 -0.21065328D-01 -0.60078419D-04 -0.60843427D-04
  0.12092185D-03  0.17515614D-03  0.12291211D-03  0.60643191D-03 -0.51473091D-02
 -0.92833840D-02 -0.13688344D-01 -0.11959660D-01 -0.32672332D-02 -0.15341701D-03
  0.29948969D-02  0.10778467D-01  0.13926679D-01  0.16346101D-02  0.60679003D-02
  0.62914298D-02  0.25490718D-03  0.23249692D-03  0.10455395D-02 -0.55264564D-03
 -0.36291525D-02  0.41817982D-02 -0.15628913D-02  0.99739453D-03 -0.58081125D-02
  0.11107704D-03 -0.24472457D-03  0.13364753D-03 -0.16374592D-03  0.85053022D-04
 -0.78477583D-03
MO    2     MO 0.0        OCC NO =    2.0000000  ORB. ENERGY =    0.000000
  0.50734985D-01  0.94561669D-01  0.16034260D+00  0.24266147D+00  0.30270106D+00
  0.25976254D+00  0.99475255D-01 -0.22583376D-03 -0.24230480D-02 -0.89318113D-02
 -0.26116092D-01 -0.31471161D-01  0.37910348D-01  0.28516654D-01 -0.28457490D-02
 -0.20782989D-02 -0.94835375D+00 -0.91958413D+00 -0.62034602D+00  0.11204584D+01
  0.10864677D+01  0.73292470D+00 -0.47173560D+00 -0.45742485D+00 -0.30857610D+00
 -0.21403703D+00  0.23079617D+00 -0.10577556D+00 -0.34969055D-01  0.20968805D-01
 -0.13677588D-01 -0.11114052D-02  0.19586876D-03 -0.28583419D-03 -0.17386796D-01
  0.80224850D-02  0.93643114D-02  0.34310138D-03  0.39220610D-01 -0.10070890D+00
 -0.31134249D-02 -0.37274015D-03  0.34861651D-02 -0.74947649D-03  0.97350573D-02
 -0.13213428D-01  0.13687087D-03 -0.42441832D-03  0.28754745D-03 -0.13224487D-03
  0.61328809D-03  0.85009646D-03  0.56987025D-02  0.58368734D-02 -0.17780049D-03
 -0.12410794D-01 -0.11342413D-01  0.69551318D-02 -0.46853132D-02 -0.61682069D-02
 -0.64217303D-02 -0.10923236D-02  0.15449504D-03  0.25907389D-04 -0.15817261D-03
 -0.21632395D-03 -0.60355432D-03  0.15447171D-03 -0.24716116D-03  0.52583215D-03
  0.32004610D-03  0.40316570D-03 -0.16364885D-01 -0.29514745D-01 -0.43519474D-01
 -0.33336388D-01 -0.37182851D-02  0.98721003D-04 -0.14416975D-01 -0.45321237D-02
 -0.20884320D-01 -0.78345532D-02 -0.13997589D-02 -0.88849992D-02 -0.11782166D-02
  0.24070191D-03 -0.53128044D-03  0.42137512D-02  0.13749802D-03 -0.43512493D-02
 -0.68926933D-02 -0.55121894D-02 -0.13453285D-01 -0.46052994D-04  0.27113836D-03
 -0.22508536D-03 -0.74691677D-03 -0.52413302D-03 -0.47956272D-03  0.40285483D-01
  0.72656527D-01  0.10713201D+00  0.72431833D-01  0.91665400D-02 -0.53455738D-04
 -0.12771112D-01 -0.28807994D-01  0.20232435D-01 -0.69704533D-02 -0.10871204D-01
  0.76437259D-02 -0.10869984D-02  0.82382651D-04 -0.19878064D-03 -0.67904999D-02
  0.68199764D-02 -0.29476487D-04  0.66646232D-02 -0.42531806D-02 -0.18185946D-01
 -0.10858383D-03  0.38173496D-04  0.70410338D-04  0.69826028D-03 -0.36269084D-03
 -0.40371989D-03
MO    3     MO 0.0        OCC NO =    2.0000000  ORB. ENERGY =    0.000000
  0.97365114D-01  0.18147256D+00  0.30771223D+00  0.46568974D+00  0.58091125D+00
  0.49850827D+00  0.19090219D+00  0.61346782D-04  0.65821071D-03  0.24262886D-02
  0.70943256D-02  0.85490073D-02 -0.10298185D-01  0.47136862D-02 -0.18923357D-01
 -0.32137154D-02  0.14837993D+01  0.14387862D+01  0.97059664D+00  0.60571171D+00
  0.58733661D+00  0.39621380D+00 -0.52818393D+00 -0.51216074D+00 -0.34550061D+00
  0.33488346D+00  0.12507781D+00 -0.11597101D+00  0.54712768D-01  0.11633523D-01
 -0.14978703D-01  0.17389105D-02  0.11270496D-03 -0.30675921D-03 -0.14932551D-01
  0.25816594D-02  0.12350892D-01 -0.53681823D-03 -0.61364772D-01 -0.53453977D-01
 -0.20793890D-02 -0.18224491D-02  0.39018381D-02  0.11726349D-02 -0.15231522D-01
 -0.74055189D-02  0.22740845D-03 -0.48259605D-03  0.25518760D-03  0.20691102D-03
 -0.95955376D-03  0.34379992D-03 -0.89162198D-02  0.32102089D-02 -0.43817899D-03
  0.19417994D-01 -0.61297644D-02  0.65297094D-02  0.73306657D-02 -0.35008624D-02
 -0.52151724D-02  0.17090553D-02 -0.24172375D-03 -0.25506014D-04 -0.17380365D-03
  0.33846159D-03 -0.33016995D-03  0.49818128D-04  0.38670965D-03  0.40668799D-03
  0.47159282D-03 -0.63079516D-03 -0.56197040D-02 -0.10135368D-01 -0.14944594D-01
 -0.88853759D-02 -0.20016199D-03  0.78119416D-04  0.22556875D-01  0.63518549D-03
 -0.12823647D-01  0.12257983D-01  0.13255849D-02 -0.52029409D-02  0.18434439D-02
  0.19428564D-03 -0.49703120D-03  0.19234400D-02  0.12014879D-02 -0.31249278D-02
  0.10784344D-01  0.86244005D-02 -0.67815843D-02 -0.34845254D-04  0.19976666D-03
 -0.16492141D-03  0.11686299D-02  0.82006128D-03 -0.37949414D-03  0.24331434D-01
  0.43882744D-01  0.64705080D-01  0.46742956D-01  0.67973155D-02  0.27355721D-05
  0.19981749D-01 -0.17692215D-01  0.88189883D-02  0.10906008D-01 -0.77901571D-02
  0.35209624D-02  0.17007234D-02 -0.41819675D-04 -0.29567371D-03 -0.39343537D-02
  0.47019325D-02 -0.76757880D-03 -0.10427505D-01  0.66545487D-02 -0.96683248D-02
 -0.98605700D-04  0.86106197D-04  0.12499503D-04 -0.10925017D-02  0.56746800D-03
 -0.14131721D-03
MO    4     MO 0.0        OCC NO =    2.0000000  ORB. ENERGY =    0.000000
  0.49547317D+00  0.92348052D+00  0.15658910D+01  0.23698095D+01  0.29561506D+01
  0.25368170D+01  0.97146614D+00  0.51754944D-03  0.55529658D-02  0.20469278D-01
  0.59850967D-01  0.72123325D-01 -0.86880188D-01  0.50324338D-02 -0.15637615D-01
 -0.26751668D-03 -0.18674204D+00 -0.18107696D+00 -0.12215345D+00 -0.17376753D+00
 -0.16849605D+00 -0.11366644D+00  0.16035767D+00  0.15549300D+00  0.10489466D+00
 -0.42146415D-01 -0.38145749D-01  0.36268736D-01 -0.68858195D-02 -0.41232791D-02
  0.30217655D-02 -0.21884880D-03 -0.51125387D-04  0.60186265D-04  0.82946940D-02
 -0.47292638D-02 -0.35654302D-02  0.67560710D-04  0.77230006D-02  0.15982787D-01
  0.22105266D-02 -0.97636431D-03 -0.12341623D-02 -0.14758076D-03  0.19169476D-02
  0.32437085D-02 -0.76307137D-04  0.14411828D-03 -0.67811144D-04 -0.26040575D-04
  0.12076366D-03  0.85102126D-04  0.11221417D-02 -0.10163651D-02  0.10621224D-03
 -0.24438318D-02  0.26523566D-02 -0.21825649D-02 -0.92259344D-03  0.39673876D-03
  0.18639282D-02 -0.21509141D-03  0.30421895D-04 -0.39191854D-05 -0.31300547D-05
 -0.42596738D-04  0.16474404D-03 -0.29800288D-03 -0.48668948D-04 -0.15298649D-03
  0.30739304D-03  0.79388081D-04 -0.47663028D-02 -0.85962234D-02 -0.12675126D-01
 -0.45922691D-02  0.27147713D-03 -0.10701244D-04 -0.28388724D-02 -0.83818128D-02
 -0.31903682D-02 -0.15427159D-02 -0.22786560D-02 -0.39749503D-03 -0.23200474D-03
 -0.41306904D-04  0.91422079D-04  0.17885340D-02 -0.20800290D-02  0.29149502D-03
 -0.13572526D-02 -0.10854151D-02 -0.50294867D-02 -0.20734952D-05 -0.40467076D-04
  0.42540572D-04 -0.14707672D-03 -0.10320797D-03  0.10192214D-03 -0.12771136D-01
 -0.23033270D-01 -0.33962544D-01 -0.18101219D-01 -0.11766786D-02  0.31298291D-04
 -0.25147826D-02  0.11563444D-01 -0.70047946D-02 -0.13725645D-02  0.30874970D-02
 -0.19972230D-02 -0.21404281D-03 -0.10916235D-03  0.81650564D-04  0.26051189D-02
 -0.27831687D-02  0.17804981D-03  0.13123429D-02 -0.83750142D-03  0.69899703D-02
  0.91371300D-05  0.25230158D-04 -0.34367288D-04  0.13749569D-03 -0.71418105D-04
  0.33003954D-04
MO    5     MO 0.0        OCC NO =    2.0000000  ORB. ENERGY =    0.000000
  0.25589443D-01  0.47694514D-01  0.80872751D-01  0.12239231D+00  0.15267476D+00
  0.13101766D+00  0.50172802D-01 -0.16398777D-02 -0.17594812D-01 -0.64857789D-01
 -0.18964037D+00 -0.22852587D+00  0.27528362D+00  0.17235257D+00  0.92979144D-01
  0.77139096D-02  0.13333223D+00  0.12928741D+00  0.87216523D-01 -0.17931620D+00
 -0.17387640D+00 -0.11729599D+00  0.43900255D+00  0.42568481D+00  0.28716446D+00
  0.30092182D-01 -0.35166689D-01  0.93086462D-01  0.49164165D-02 -0.30374879D-02
  0.16236288D-01  0.15625618D-03 -0.35736255D-04  0.31799818D-03 -0.99593437D-02
  0.21972851D-01 -0.12013507D-01 -0.48237772D-04 -0.55141567D-02  0.19300559D-01
 -0.34243809D-02  0.62415701D-02 -0.28171892D-02  0.10537141D-03 -0.13686843D-02
  0.12348847D-02 -0.14585384D-03  0.30064579D-03 -0.15479195D-03  0.18592749D-04
 -0.86224224D-04 -0.22491925D-03 -0.80119965D-03 -0.25998672D-03  0.25464068D-02
  0.17448751D-02  0.11301255D-02  0.55791981D-03  0.65872386D-03 -0.35016537D-03
 -0.81971401D-02  0.15357344D-03 -0.21720974D-04 -0.47352322D-04 -0.21345992D-03
  0.30413708D-04 -0.11820533D-03 -0.91759745D-04  0.34749215D-04  0.26026229D-03
  0.73213950D-03 -0.56682414D-04  0.16269298D-01  0.29342349D-01  0.43265277D-01
  0.56076979D-02 -0.47771870D-02 -0.12957667D-03  0.20269307D-02  0.15167052D-01
  0.22413674D-01  0.11014860D-02 -0.18653750D-02  0.41719814D-02  0.16564941D-03
 -0.54093346D-03  0.25549410D-03 -0.19925986D-02 -0.78607850D-03  0.27786771D-02
  0.96906681D-03  0.77497715D-03  0.78722668D-02  0.15752169D-03 -0.24978374D-03
  0.92262052D-04  0.10501153D-03  0.73689615D-04 -0.56518905D-04  0.64631651D-02
  0.11656584D-01  0.17187627D-01 -0.10400058D-01 -0.66439351D-02 -0.11092759D-03
  0.17955334D-02 -0.97962898D-02  0.12724567D-01  0.97999935D-03  0.35728913D-02
  0.18931016D-02  0.15282475D-03  0.51066966D-03  0.24698990D-03  0.55391851D-04
 -0.16620575D-02  0.16066656D-02 -0.93700168D-03  0.59796889D-03 -0.22788587D-02
  0.15254056D-03 -0.24319304D-03  0.90652479D-04 -0.98170750D-04  0.50991919D-04
  0.56325123D-04
END DATA
 TOTAL ENERGY =    -76.464395377205 THE VIRIAL(-V/T)=   2.00522772
