 81
GAUSSIAN              5 MOL ORBITALS    126 PRIMITIVES        3 NUCLEI   B3LYP
  O    1    (CENTRE  1)   0.00000000  0.09448631  0.00815606  CHARGE =  8.0
  H    2    (CENTRE  2)   0.00000000 -1.44255835 -1.09730160  CHARGE =  1.0
  H    3    (CENTRE  3)   0.00000000  1.44255835 -1.19178791  CHARGE =  1.0
CENTRE ASSIGNMENTS    1  1  1  1  1  1  1  1  1  1  1  1  1  1  1  1  1  1  1  1
CENTRE ASSIGNMENTS    1  1  1  1  1  1  1  1  1  1  1  1  1  1  1  1  1  1  1  1
CENTRE ASSIGNMENTS    1  1  1  1  1  1  1  1  1  1  1  1  1  1  1  1  1  1  1  1
CENTRE ASSIGNMENTS    1  1  1  1  1  1  1  1  1  1  1  1  2  2  2  2  2  2  2  2
CENTRE ASSIGNMENTS    2  2  2  2  2  2  2  2  2  2  2  2  2  2  2  2  2  2  2  3
CENTRE ASSIGNMENTS    3  3  3  3  3  3  3  3  3  3  3  3  3  3  3  3  3  3  3  3
CENTRE ASSIGNMENTS    3  3  3  3  3  3
TYPE ASSIGNMENTS      1  1  1  1  1  1  1  1  1  1  1  1  1  1  1  1  2  2  2  3
TYPE ASSIGNMENTS      3  3  4  4  4  2  3  4  2  3  4  2  3  4  5  6  7  8  9 10
TYPE ASSIGNMENTS      5  6  7  8  9 10  5  6  7  8  9 10 11 12 13 17 14 15 18 19
TYPE ASSIGNMENTS     16 20 11 12 13 17 14 15 18 19 16 20  1  1  1  1  1  1  2  3
TYPE ASSIGNMENTS      4  2  3  4  2  3  4  5  6  7  8  9 10  5  6  7  8  9 10  1
TYPE ASSIGNMENTS      1  1  1  1  1  2  3  4  2  3  4  2  3  4  5  6  7  8  9 10
TYPE ASSIGNMENTS      5  6  7  8  9 10
EXPONENTS  0.1533000D+05 0.2299000D+04 0.5224000D+03 0.1473000D+03 0.4755000D+02
EXPONENTS  0.1676000D+02 0.6207000D+01 0.5224000D+03 0.1473000D+03 0.4755000D+02
EXPONENTS  0.1676000D+02 0.6207000D+01 0.6882000D+00 0.1752000D+01 0.2384000D+00
EXPONENTS  0.7376000D-01 0.3446000D+02 0.7749000D+01 0.2280000D+01 0.3446000D+02
EXPONENTS  0.7749000D+01 0.2280000D+01 0.3446000D+02 0.7749000D+01 0.2280000D+01
EXPONENTS  0.7156000D+00 0.7156000D+00 0.7156000D+00 0.2140000D+00 0.2140000D+00
EXPONENTS  0.2140000D+00 0.5974000D-01 0.5974000D-01 0.5974000D-01 0.2314000D+01
EXPONENTS  0.2314000D+01 0.2314000D+01 0.2314000D+01 0.2314000D+01 0.2314000D+01
EXPONENTS  0.6450000D+00 0.6450000D+00 0.6450000D+00 0.6450000D+00 0.6450000D+00
EXPONENTS  0.6450000D+00 0.2140000D+00 0.2140000D+00 0.2140000D+00 0.2140000D+00
EXPONENTS  0.2140000D+00 0.2140000D+00 0.1428000D+01 0.1428000D+01 0.1428000D+01
EXPONENTS  0.1428000D+01 0.1428000D+01 0.1428000D+01 0.1428000D+01 0.1428000D+01
EXPONENTS  0.1428000D+01 0.1428000D+01 0.5000000D+00 0.5000000D+00 0.5000000D+00
EXPONENTS  0.5000000D+00 0.5000000D+00 0.5000000D+00 0.5000000D+00 0.5000000D+00
EXPONENTS  0.5000000D+00 0.5000000D+00 0.3387000D+02 0.5095000D+01 0.1159000D+01
EXPONENTS  0.3258000D+00 0.1027000D+00 0.2526000D-01 0.1407000D+01 0.1407000D+01
EXPONENTS  0.1407000D+01 0.3880000D+00 0.3880000D+00 0.3880000D+00 0.1020000D+00
EXPONENTS  0.1020000D+00 0.1020000D+00 0.1057000D+01 0.1057000D+01 0.1057000D+01
EXPONENTS  0.1057000D+01 0.1057000D+01 0.1057000D+01 0.2470000D+00 0.2470000D+00
EXPONENTS  0.2470000D+00 0.2470000D+00 0.2470000D+00 0.2470000D+00 0.3387000D+02
EXPONENTS  0.5095000D+01 0.1159000D+01 0.3258000D+00 0.1027000D+00 0.2526000D-01
EXPONENTS  0.1407000D+01 0.1407000D+01 0.1407000D+01 0.3880000D+00 0.3880000D+00
EXPONENTS  0.3880000D+00 0.1020000D+00 0.1020000D+00 0.1020000D+00 0.1057000D+01
EXPONENTS  0.1057000D+01 0.1057000D+01 0.1057000D+01 0.1057000D+01 0.1057000D+01
EXPONENTS  0.2470000D+00 0.2470000D+00 0.2470000D+00 0.2470000D+00 0.2470000D+00
EXPONENTS  0.2470000D+00
MO    1     MO 0.0        OCC NO =    2.0000000  ORB. ENERGY =    0.000000
 -0.76107499D-02 -0.14185186D-01 -0.24052977D-01 -0.36401623D-01 -0.45408156D-01
 -0.38966953D-01 -0.14922273D-01 -0.21621622D-03 -0.23198582D-02 -0.85514340D-02
 -0.25003892D-01 -0.30130905D-01  0.36295868D-01  0.22283992D-01  0.62128089D-01
  0.10012424D-01 -0.48231353D-02 -0.46768189D-02 -0.31549544D-02  0.16410194D+00
  0.15912368D+00  0.10734390D+00  0.15841269D+01  0.15360702D+01  0.10362239D+01
 -0.10893617D-02  0.38002023D-01  0.34378204D+00 -0.18028039D-03  0.56103472D-02
  0.42195876D-01 -0.58279107D-05  0.82992052D-04  0.79666657D-03  0.41571132D-01
  0.14340699D-02 -0.43005202D-01 -0.27440348D-06  0.19572333D-03 -0.94565577D-02
  0.55858711D-02  0.67723700D-02 -0.12358241D-01  0.31608781D-05  0.51723299D-04
 -0.45563949D-02 -0.71722867D-03  0.13089643D-02 -0.59173562D-03  0.60233940D-06
  0.35830675D-05 -0.67619195D-03  0.28653487D-04  0.12284980D-02  0.22353723D-02
 -0.57330744D-04 -0.26773983D-02 -0.18605666D-01 -0.28629717D-04 -0.10080958D-02
  0.11899549D-01  0.48828417D-05  0.12599961D-05 -0.18593990D-03  0.64327651D-03
 -0.20555747D-05 -0.24233719D-03 -0.39369393D-03 -0.17244136D-05  0.80015689D-03
 -0.15361356D-02 -0.17139269D-05 -0.29585313D-01 -0.53358330D-01 -0.78676827D-01
 -0.60018601D-01 -0.11048673D-01 -0.13072150D-03 -0.61171869D-04 -0.24041035D-01
  0.33241722D-03 -0.33387991D-04 -0.13070273D-01 -0.21062016D-03 -0.52681674D-05
 -0.38075741D-03  0.91057173D-03  0.39819618D-02 -0.72158742D-02  0.32339124D-02
 -0.31782774D-04 -0.21802774D-04 -0.73520772D-02  0.27684373D-03 -0.34487979D-03
  0.68036065D-04 -0.31553245D-05 -0.17141386D-05  0.50871318D-04 -0.25882159D-01
 -0.46679539D-01 -0.68828953D-01 -0.55309631D-01 -0.94169969D-02 -0.13575190D-03
 -0.68197200D-04  0.25891154D-01  0.34792443D-04 -0.37044132D-04  0.13098288D-01
 -0.10061416D-03 -0.56791188D-05  0.40233381D-03  0.10119944D-02  0.38226780D-02
 -0.70176954D-02  0.31950173D-02  0.32072608D-04 -0.27496463D-04  0.90986450D-02
  0.10945648D-03 -0.31276733D-03  0.20331085D-03  0.33589588D-05 -0.24669227D-05
 -0.41151849D-03
MO    2     MO 0.0        OCC NO =    2.0000000  ORB. ENERGY =    0.000000
 -0.50105629D-01 -0.93388654D-01 -0.15835359D+00 -0.23965131D+00 -0.29894612D+00
 -0.25654025D+00 -0.98241287D-01  0.30811763D-03  0.33059000D-02  0.12186170D-01
  0.35631646D-01  0.42937866D-01 -0.51723210D-01 -0.36853228D-01 -0.23558801D-01
 -0.19750601D-02  0.86417638D-01  0.83796039D-01  0.56528313D-01  0.14197388D+01
  0.13766690D+01  0.92869280D+00 -0.19594743D+00 -0.19000310D+00 -0.12817497D+00
  0.19518438D-01  0.29780850D+00 -0.38231835D-01  0.32301407D-02  0.30169436D-01
 -0.36154228D-02  0.10442052D-03  0.32741986D-03 -0.56560072D-04 -0.45030628D-04
 -0.88684966D-02  0.89135273D-02  0.49165737D-05 -0.35068367D-02 -0.13285970D+00
  0.12082610D-02 -0.28285899D-02  0.16203289D-02 -0.56634451D-04 -0.92674267D-03
 -0.19331870D-01  0.26532253D-03 -0.22392945D-03 -0.41393078D-04 -0.10792305D-04
 -0.64198952D-04  0.50195297D-03 -0.51339357D-03  0.64274530D-02 -0.56192855D-03
  0.10272130D-02 -0.15506968D-01  0.40118133D-03  0.51296767D-03 -0.37753913D-02
  0.12846043D-02 -0.87487415D-04 -0.22575748D-04  0.12761440D-03 -0.13047375D-03
  0.36830381D-04 -0.10625291D-02 -0.17423856D-03  0.30896863D-04  0.67968586D-03
  0.56565982D-03  0.30708969D-04 -0.36679656D-01 -0.66153270D-01 -0.97542958D-01
 -0.61685224D-01 -0.70259476D-02  0.15675938D-03  0.10960357D-02 -0.19218002D-01
 -0.25904097D-01  0.59822318D-03 -0.59073609D-02 -0.10190060D-01  0.94391417D-04
  0.35905083D-03 -0.27245916D-03  0.60314448D-02 -0.28691008D-02 -0.31623440D-02
  0.56946199D-03  0.39064718D-03 -0.18283900D-01  0.14705113D-03  0.69361637D-04
 -0.21641277D-03  0.56534945D-04  0.30712762D-04 -0.84296382D-03  0.35300557D-01
  0.63666007D-01  0.93875491D-01  0.70032244D-01  0.92186810D-02 -0.99511315D-04
  0.12219108D-02 -0.16540814D-01  0.26258813D-01  0.66373141D-03 -0.71264759D-02
  0.11142408D-01  0.10175456D-03  0.30852545D-03  0.85495396D-04 -0.69354346D-02
  0.20857781D-02  0.48496565D-02 -0.57465505D-03  0.49266281D-03 -0.20075133D-01
 -0.65265981D-04 -0.19242452D-03  0.25769050D-03 -0.60183526D-04  0.44200633D-04
 -0.40738514D-03
MO    3     MO 0.0        OCC NO =    2.0000000  ORB. ENERGY =    0.000000
  0.27219153D+00  0.50732025D+00  0.86023278D+00  0.13018708D+01  0.16239813D+01
  0.13936175D+01  0.53368148D+00 -0.11031280D-02 -0.11835840D-01 -0.43629134D-01
 -0.12756903D+00 -0.15372688D+00  0.18518032D+00  0.14626074D+00  0.55627432D-01
  0.36908013D-02 -0.37778064D+00 -0.36632014D+00 -0.24711740D+00  0.32912157D+00
  0.31913721D+00  0.21528808D+00  0.82976323D-02  0.80459121D-02  0.54277248D-02
 -0.85326190D-01  0.68297547D-01  0.49229328D-03 -0.14120782D-01  0.67827703D-02
  0.32187106D-02 -0.45648145D-03  0.81388675D-04  0.53416042D-04 -0.14901703D-01
  0.13093032D-01  0.18086708D-02 -0.21493139D-04  0.15330377D-01 -0.34237447D-01
 -0.35032856D-02  0.28183973D-02  0.68488830D-03  0.24758139D-03  0.40513192D-02
 -0.40941621D-02  0.34011495D-04 -0.30638443D-04 -0.33730514D-05  0.47179303D-04
  0.28065013D-03  0.21582090D-03  0.22443352D-02  0.91546294D-03  0.16051041D-02
 -0.44905323D-02 -0.33433802D-02  0.43397965D-02 -0.22424734D-02  0.59699143D-03
 -0.91551089D-02  0.38245724D-03  0.98691432D-04  0.88576386D-04 -0.23969261D-03
 -0.16100654D-03 -0.96099176D-04 -0.57395166D-04 -0.13506776D-03 -0.16962998D-03
  0.77647298D-03 -0.13424636D-03  0.30896858D-02  0.55723757D-02  0.82164647D-02
 -0.77200980D-02 -0.41321373D-02 -0.26932789D-04 -0.47913952D-02  0.77326596D-02
  0.46751557D-02 -0.26151737D-02 -0.11434716D-02 -0.48433335D-03 -0.41263856D-03
 -0.22065819D-03 -0.61412131D-04  0.58731253D-03 -0.51918817D-03 -0.68124355D-04
 -0.24894422D-02 -0.17077409D-02 -0.13529040D-02  0.71771006D-04 -0.71236202D-04
 -0.53480327D-06 -0.24714639D-03 -0.13426295D-03 -0.20646641D-03  0.20816425D-01
  0.37543280D-01  0.55357545D-01  0.22619218D-01 -0.78877357D-03 -0.97569116D-04
 -0.53416668D-02 -0.16170638D-01  0.19087818D-01 -0.29015474D-02 -0.14669735D-02
  0.41027660D-02 -0.44482706D-03  0.41674137D-03 -0.55794451D-04 -0.24237018D-02
  0.42095851D-03  0.20027432D-02  0.25121440D-02 -0.21537093D-02 -0.76349815D-02
  0.64358200D-04 -0.13189811D-03  0.67539914D-04  0.26309641D-03 -0.19322610D-03
  0.64402043D-04
MO    4     MO 0.0        OCC NO =    2.0000000  ORB. ENERGY =    0.000000
  0.41457623D+00  0.77270192D+00  0.13102247D+01  0.19828857D+01  0.24734937D+01
  0.21226256D+01  0.81285282D+00  0.12985323D-02  0.13932399D-01  0.51357447D-01
  0.15016616D+00  0.18095753D+00 -0.21798252D+00 -0.84961345D-01 -0.63472286D-01
 -0.43131656D-02 -0.17734703D+00 -0.17196697D+00 -0.11600790D+00 -0.46049412D-01
 -0.44652440D-01 -0.30122272D-01 -0.77183304D-01 -0.74841842D-01 -0.50487865D-01
 -0.40055909D-01 -0.73842249D-02 -0.12729392D-01 -0.66289231D-02 -0.24617168D-03
 -0.46998278D-02 -0.21429270D-03  0.49939925D-06 -0.85047863D-04  0.11972599D-01
 -0.12878175D-01  0.90557622D-03 -0.10089836D-04  0.71967611D-02  0.59521419D-02
  0.41995037D-02 -0.40729101D-02 -0.12659357D-03  0.11622572D-03  0.19018694D-02
 -0.56348452D-03  0.94966373D-04 -0.10466136D-03  0.96949902D-05  0.22148063D-04
  0.13174965D-03 -0.20854425D-03  0.10535908D-02  0.20575246D-03 -0.13359848D-02
 -0.21080556D-02 -0.43972403D-03 -0.26912262D-02 -0.10527167D-02 -0.17753335D-03
  0.66991806D-02  0.17954244D-03  0.46330148D-04 -0.13519353D-04  0.45076553D-04
 -0.75583630D-04 -0.13561276D-03 -0.39014165D-03 -0.63406813D-04  0.17617082D-03
  0.25491199D-03 -0.63021214D-04 -0.10772818D-01 -0.19429221D-01 -0.28648375D-01
 -0.40140786D-02  0.30524874D-02  0.74730630D-04 -0.22492940D-02 -0.11925663D-01
 -0.10192993D-01 -0.12276789D-02 -0.10530580D-04 -0.16365268D-02 -0.19371089D-03
  0.31650654D-03 -0.17884120D-04  0.14229488D-02 -0.81819150D-03 -0.60475731D-03
 -0.11686549D-02 -0.80168956D-03 -0.46950107D-02 -0.52136087D-04  0.97540816D-04
 -0.45404728D-04 -0.11602151D-03 -0.63028998D-04  0.30252310D-04 -0.14095716D-01
 -0.25422204D-01 -0.37485025D-01 -0.98248769D-02  0.23191984D-02  0.71741659D-04
 -0.25076160D-02  0.14266583D-01 -0.15195228D-01 -0.13621154D-02  0.10599564D-02
 -0.28554332D-02 -0.20882161D-03 -0.26260554D-03 -0.28093672D-04  0.26081534D-02
 -0.10634210D-02 -0.15447324D-02  0.11793121D-02 -0.10110469D-02  0.83294917D-02
 -0.54184067D-04  0.71271399D-04 -0.17087332D-04  0.12350916D-03 -0.90708926D-04
 -0.50644266D-04
MO    5     MO 0.0        OCC NO =    2.0000000  ORB. ENERGY =    0.000000
  0.10372968D+00  0.19333507D+00  0.32782678D+00  0.49613097D+00  0.61888428D+00
  0.53109478D+00  0.20338109D+00 -0.12295060D-03 -0.13191792D-02 -0.48627430D-02
 -0.14218375D-01 -0.17133834D-01  0.20639518D-01  0.24966369D-01  0.69445029D-02
  0.48714014D-03  0.17415059D+01  0.16886749D+01  0.11391701D+01 -0.32902314D-02
 -0.31904177D-02 -0.21522370D-02  0.80506343D-02  0.78064072D-02  0.52661562D-02
  0.39333955D+00 -0.60906916D-03  0.16597538D-02  0.65094457D-01 -0.35239905D-04
  0.51588612D-03  0.21043036D-02  0.16888044D-05  0.79395530D-05 -0.18959885D-02
  0.19728322D-02 -0.76843731D-04  0.99079800D-04 -0.70670492D-01 -0.25428485D-03
 -0.37678745D-03  0.35573896D-03  0.21048495D-04 -0.11413091D-02 -0.18675908D-01
  0.11547121D-05  0.18966640D-05 -0.25674485D-05  0.67078453D-06 -0.21748874D-03
 -0.12937504D-02 -0.12005135D-05 -0.10346012D-01 -0.96001014D-04  0.24621585D-03
  0.20700607D-01 -0.79735579D-05  0.59592292D-03  0.10337430D-01  0.29597660D-03
 -0.13345705D-02 -0.17630643D-02 -0.45495110D-03  0.10990418D-04 -0.39149559D-04
  0.74221338D-03  0.17397297D-04 -0.44625056D-04  0.62263991D-03 -0.50368551D-04
  0.16207373D-03  0.61885342D-03  0.13113773D-02  0.23651230D-02  0.34873725D-02
  0.81126628D-03 -0.26747845D-03 -0.63730438D-05  0.22087535D-01  0.13500322D-02
  0.12625052D-02  0.12055516D-01  0.78159238D-05  0.23334982D-03  0.19021952D-02
 -0.34506724D-04  0.89869252D-06 -0.15955512D-04 -0.73560071D-04  0.89515583D-04
  0.11475915D-01  0.78724019D-02  0.11532791D-03  0.37295071D-05 -0.99170229D-05
  0.61875158D-05  0.11393038D-02  0.61892986D-03  0.26324742D-06  0.12568347D-02
  0.22667532D-02  0.33423263D-02  0.27786466D-03 -0.41846341D-03 -0.92975678D-05
  0.24624196D-01 -0.11625129D-02  0.12903331D-02  0.13375651D-01  0.17962269D-03
  0.46027465D-04  0.20505788D-02  0.49464647D-04 -0.16404031D-04  0.94574379D-04
 -0.13991334D-03  0.45338956D-04 -0.11580566D-01  0.99282418D-02  0.21337398D-03
  0.11985003D-04 -0.12672038D-04  0.68703489D-06 -0.12128307D-02  0.89074021D-03
  0.27888901D-04
END DATA
 TOTAL ENERGY =    -76.464690427610 THE VIRIAL(-V/T)=   2.00663677
