 81
GAUSSIAN              5 MOL ORBITALS    126 PRIMITIVES        3 NUCLEI   B3LYP
  O    1    (CENTRE  1)   0.00000000 -0.09448631  0.00815606  CHARGE =  8.0
  H    2    (CENTRE  2)   0.00000000 -1.44255835 -1.09730160  CHARGE =  1.0
  H    3    (CENTRE  3)   0.00000000  1.44255835 -1.19178791  CHARGE =  1.0
CENTRE ASSIGNMENTS    1  1  1  1  1  1  1  1  1  1  1  1  1  1  1  1  1  1  1  1
CENTRE ASSIGNMENTS    1  1  1  1  1  1  1  1  1  1  1  1  1  1  1  1  1  1  1  1
CENTRE ASSIGNMENTS    1  1  1  1  1  1  1  1  1  1  1  1  1  1  1  1  1  1  1  1
CENTRE ASSIGNMENTS    1  1  1  1  1  1  1  1  1  1  1  1  2  2  2  2  2  2  2  2
CENTRE ASSIGNMENTS    2  2  2  2  2  2  2  2  2  2  2  2  2  2  2  2  2  2  2  3
CENTRE ASSIGNMENTS    3  3  3  3  3  3  3  3  3  3  3  3  3  3  3  3  3  3  3  3
CENTRE ASSIGNMENTS    3  3  3  3  3  3
TYPE ASSIGNMENTS      1  1  1  1  1  1  1  1  1  1  1  1  1  1  1  1  2  2  2  3
TYPE ASSIGNMENTS      3  3  4  4  4  2  3  4  2  3  4  2  3  4  5  6  7  8  9 10
TYPE ASSIGNMENTS      5  6  7  8  9 10  5  6  7  8  9 10 11 12 13 17 14 15 18 19
TYPE ASSIGNMENTS     16 20 11 12 13 17 14 15 18 19 16 20  1  1  1  1  1  1  2  3
TYPE ASSIGNMENTS      4  2  3  4  2  3  4  5  6  7  8  9 10  5  6  7  8  9 10  1
TYPE ASSIGNMENTS      1  1  1  1  1  2  3  4  2  3  4  2  3  4  5  6  7  8  9 10
TYPE ASSIGNMENTS      5  6  7  8  9 10
EXPONENTS  0.1533000D+05 0.2299000D+04 0.5224000D+03 0.1473000D+03 0.4755000D+02
EXPONENTS  0.1676000D+02 0.6207000D+01 0.5224000D+03 0.1473000D+03 0.4755000D+02
EXPONENTS  0.1676000D+02 0.6207000D+01 0.6882000D+00 0.1752000D+01 0.2384000D+00
EXPONENTS  0.7376000D-01 0.3446000D+02 0.7749000D+01 0.2280000D+01 0.3446000D+02
EXPONENTS  0.7749000D+01 0.2280000D+01 0.3446000D+02 0.7749000D+01 0.2280000D+01
EXPONENTS  0.7156000D+00 0.7156000D+00 0.7156000D+00 0.2140000D+00 0.2140000D+00
EXPONENTS  0.2140000D+00 0.5974000D-01 0.5974000D-01 0.5974000D-01 0.2314000D+01
EXPONENTS  0.2314000D+01 0.2314000D+01 0.2314000D+01 0.2314000D+01 0.2314000D+01
EXPONENTS  0.6450000D+00 0.6450000D+00 0.6450000D+00 0.6450000D+00 0.6450000D+00
EXPONENTS  0.6450000D+00 0.2140000D+00 0.2140000D+00 0.2140000D+00 0.2140000D+00
EXPONENTS  0.2140000D+00 0.2140000D+00 0.1428000D+01 0.1428000D+01 0.1428000D+01
EXPONENTS  0.1428000D+01 0.1428000D+01 0.1428000D+01 0.1428000D+01 0.1428000D+01
EXPONENTS  0.1428000D+01 0.1428000D+01 0.5000000D+00 0.5000000D+00 0.5000000D+00
EXPONENTS  0.5000000D+00 0.5000000D+00 0.5000000D+00 0.5000000D+00 0.5000000D+00
EXPONENTS  0.5000000D+00 0.5000000D+00 0.3387000D+02 0.5095000D+01 0.1159000D+01
EXPONENTS  0.3258000D+00 0.1027000D+00 0.2526000D-01 0.1407000D+01 0.1407000D+01
EXPONENTS  0.1407000D+01 0.3880000D+00 0.3880000D+00 0.3880000D+00 0.1020000D+00
EXPONENTS  0.1020000D+00 0.1020000D+00 0.1057000D+01 0.1057000D+01 0.1057000D+01
EXPONENTS  0.1057000D+01 0.1057000D+01 0.1057000D+01 0.2470000D+00 0.2470000D+00
EXPONENTS  0.2470000D+00 0.2470000D+00 0.2470000D+00 0.2470000D+00 0.3387000D+02
EXPONENTS  0.5095000D+01 0.1159000D+01 0.3258000D+00 0.1027000D+00 0.2526000D-01
EXPONENTS  0.1407000D+01 0.1407000D+01 0.1407000D+01 0.3880000D+00 0.3880000D+00
EXPONENTS  0.3880000D+00 0.1020000D+00 0.1020000D+00 0.1020000D+00 0.1057000D+01
EXPONENTS  0.1057000D+01 0.1057000D+01 0.1057000D+01 0.1057000D+01 0.1057000D+01
EXPONENTS  0.2470000D+00 0.2470000D+00 0.2470000D+00 0.2470000D+00 0.2470000D+00
EXPONENTS  0.2470000D+00
MO    1     MO 0.0        OCC NO =    2.0000000  ORB. ENERGY =    0.000000
  0.39194929D+00  0.73052903D+00  0.12387146D+01  0.18746629D+01  0.23384942D+01
  0.20067759D+01  0.76848856D+00  0.10636579D-02  0.11412351D-01  0.42068076D-01
  0.12300459D+00  0.14822651D+00 -0.17855453D+00 -0.63359146D-01 -0.30261488D-01
  0.23929279D-03  0.73357671D-02  0.71132265D-02  0.47985406D-02  0.10270136D+00
  0.99585774D-01  0.67179975D-01  0.54999648D+00  0.53331157D+00  0.35976884D+00
  0.16554862D-02  0.14320414D-01  0.12164533D+00  0.27343633D-03 -0.12227994D-02
  0.11655355D-01  0.88248300D-05 -0.28745358D-04  0.22078714D-03  0.26474724D-01
 -0.10627134D-01 -0.15847591D-01 -0.33420508D-04 -0.29931077D-03 -0.13668053D-01
  0.56290433D-02 -0.77468410D-03 -0.48543592D-02  0.28002638D-05 -0.77751492D-04
  0.31001194D-02 -0.25931460D-03  0.46595843D-03 -0.20664383D-03  0.15356846D-05
 -0.53945685D-05  0.93881420D-03 -0.43327836D-04  0.55989419D-04 -0.26193207D-03
  0.86994890D-04  0.11773305D-02 -0.94175563D-02  0.42988617D-04 -0.13452987D-02
  0.10203353D-01  0.74633355D-05 -0.18208112D-05  0.15918038D-03  0.31386177D-03
  0.28650556D-05  0.37833511D-03 -0.43695949D-03  0.25973780D-05 -0.85587625D-03
 -0.50462581D-03 -0.61741116D-05 -0.26244601D-01 -0.47333219D-01 -0.69792804D-01
 -0.37851821D-01 -0.22327162D-02  0.14386958D-04  0.11201597D-03 -0.27892105D-01
 -0.16682316D-01  0.60666254D-04 -0.74664466D-02 -0.34295620D-02  0.91054365D-05
  0.11223802D-03  0.37691450D-03  0.50470652D-02 -0.50745390D-02  0.27473811D-04
  0.53902117D-04  0.42772597D-04 -0.14433875D-01 -0.68240929D-04 -0.21402847D-04
  0.89643777D-04  0.57065213D-05  0.39967758D-05  0.35669691D-03 -0.17792879D-01
 -0.32090189D-01 -0.47316966D-01 -0.21072327D-01 -0.10974945D-02  0.71534635D-05
  0.86849319D-04  0.16364405D-01 -0.70410229D-02  0.47606199D-04  0.40015162D-02
 -0.83461454D-03  0.76442849D-05 -0.11191134D-03  0.34717331D-03  0.18736478D-02
 -0.24650861D-02  0.59143831D-03 -0.44558204D-04  0.33057571D-04  0.45102746D-02
  0.78869949D-04 -0.49102209D-04 -0.29767740D-04 -0.42954239D-05  0.24194969D-05
 -0.23243279D-04
MO    2     MO 0.0        OCC NO =    2.0000000  ORB. ENERGY =    0.000000
  0.30701778D+00  0.57223066D+00  0.97029749D+00  0.14684421D+01  0.18317657D+01
  0.15719275D+01  0.60196474D+00 -0.35022192D-03 -0.37576514D-02 -0.13851411D-01
 -0.40500712D-01 -0.48805328D-01  0.58791189D-01  0.71718735D-01 -0.13259884D-01
 -0.46720872D-02 -0.26376720D+00 -0.25576546D+00 -0.17253787D+00  0.17332205D+00
  0.16806409D+00  0.11337504D+00 -0.10148414D+01 -0.98405480D+00 -0.66383756D+00
 -0.59525194D-01  0.40685483D-01 -0.22108769D+00 -0.98317647D-02  0.62767837D-02
 -0.26024271D-01 -0.31730843D-03  0.63268793D-04 -0.49261408D-03 -0.34241449D-01
  0.57309832D-02  0.28510466D-01  0.12016785D-02  0.10762114D-01 -0.81071931D-02
 -0.52358481D-02 -0.29833508D-02  0.82191990D-02 -0.10068719D-03  0.27956577D-02
 -0.48267405D-02  0.44865432D-03 -0.85254437D-03  0.40389005D-03 -0.55217568D-04
  0.19396884D-03 -0.76575504D-03  0.15579096D-02  0.13141822D-02 -0.45970952D-03
 -0.31280163D-02 -0.26955006D-02  0.14595528D-01 -0.15457125D-02 -0.12470461D-02
 -0.13216399D-01 -0.26835409D-03  0.65469674D-04 -0.20347375D-03 -0.55715919D-03
 -0.10301686D-03 -0.51638925D-03  0.15224985D-03 -0.93392161D-04  0.11268105D-02
  0.15192277D-02  0.22199834D-03  0.20179935D-01  0.36395344D-01  0.53664914D-01
  0.34127472D-01  0.36593696D-02  0.50672724D-04 -0.40276821D-02  0.22675046D-01
  0.25858909D-02 -0.21813353D-02  0.76437302D-02 -0.12852297D-02 -0.32739801D-03
  0.52567502D-05 -0.82094941D-03 -0.19566060D-02  0.46244169D-02 -0.26678110D-02
 -0.19381219D-02 -0.15379453D-02  0.42070331D-02  0.59881703D-04  0.13027132D-03
 -0.19015302D-03 -0.20518551D-03 -0.14370936D-03 -0.63506505D-03  0.26480615D-01
  0.47758880D-01  0.70420441D-01  0.45904464D-01  0.73485071D-02  0.62199155D-04
 -0.31227821D-02 -0.20214339D-01  0.64199586D-02 -0.17117438D-02 -0.88055018D-02
  0.21853772D-02 -0.27486037D-03 -0.20832492D-03 -0.51048189D-03 -0.29818692D-02
  0.41733518D-02 -0.11914826D-02  0.16021491D-02 -0.11886287D-02 -0.65442674D-02
 -0.25662962D-03  0.22978681D-03  0.26842813D-04  0.15444764D-03 -0.86996209D-04
 -0.23728125D-03
MO    3     MO 0.0        OCC NO =    2.0000000  ORB. ENERGY =    0.000000
 -0.60743401D-01 -0.11321571D+00 -0.19197315D+00 -0.29053095D+00 -0.36241445D+00
 -0.31100552D+00 -0.11909859D+00 -0.70901406D-04 -0.76072556D-03 -0.28041777D-02
 -0.81992510D-02 -0.98804961D-02  0.11902105D-01 -0.19368368D-02  0.17392637D-01
  0.16075437D-02  0.51024550D-01  0.49476649D-01  0.33376655D-01  0.14543611D+01
  0.14102411D+01  0.95134030D+00  0.15499151D+00  0.15028963D+00  0.10138450D+00
  0.11514874D-01  0.30431557D+00  0.25923312D-01  0.19019096D-02  0.30393162D-01
 -0.24405621D-03  0.61381852D-04  0.33332205D-03 -0.90614391D-06  0.52875702D-02
 -0.24784524D-02 -0.28091178D-02 -0.23245917D-03 -0.20818814D-02 -0.13712877D+00
 -0.12223431D-02  0.21447899D-02 -0.92244681D-03  0.19477472D-04 -0.54080709D-03
 -0.19836616D-01 -0.55878810D-03  0.47956655D-03  0.79221551D-04  0.10681584D-04
 -0.37522379D-04  0.64016387D-03 -0.30137043D-03  0.63931124D-02  0.54100550D-03
  0.60510033D-03 -0.16143125D-01 -0.28507573D-03  0.29901096D-03 -0.30362126D-02
 -0.13379408D-02  0.51911862D-04 -0.12664807D-04  0.11538195D-03  0.31581049D-03
  0.19928137D-04 -0.95814750D-03  0.59090910D-03  0.18066283D-04  0.61200166D-03
 -0.15383406D-02 -0.42944556D-04 -0.39887983D-01 -0.71939621D-01 -0.10607493D+00
 -0.76250774D-01 -0.83120986D-02  0.11940980D-03  0.77913655D-03 -0.23240134D-01
 -0.32037197D-01  0.42196927D-03 -0.76990416D-02 -0.11769792D-01  0.63333635D-04
  0.55144364D-03  0.17336055D-05  0.75857312D-02 -0.30118273D-02 -0.45739039D-02
  0.37492074D-03  0.29750842D-03 -0.22366749D-01 -0.86503962D-04  0.33926195D-03
 -0.25275799D-03  0.39692192D-04  0.27799913D-04 -0.30739807D-04  0.34087285D-01
  0.61477823D-01  0.90649014D-01  0.58478055D-01  0.77246032D-02 -0.15739848D-03
  0.60408779D-03 -0.14252864D-01  0.22208977D-01  0.33112895D-03 -0.47337440D-02
  0.92714232D-02  0.53170471D-04  0.27616243D-03  0.26990650D-03 -0.53347123D-02
  0.18227966D-02  0.35119157D-02 -0.30992836D-03  0.22993474D-03 -0.16012186D-01
 -0.20679201D-03 -0.33343356D-04  0.24013536D-03 -0.29877185D-04  0.16829016D-04
 -0.97105253D-03
MO    4     MO 0.0        OCC NO =    2.0000000  ORB. ENERGY =    0.000000
  0.33614657D-02  0.62652194D-02  0.10623560D-01  0.16077628D-01  0.20055574D-01
  0.17210666D-01  0.65907709D-02  0.60413770D-03  0.64820010D-02  0.23893876D-01
  0.69864292D-01  0.84189870D-01 -0.10141562D+00 -0.62278193D-01 -0.51305502D-01
 -0.58095310D-02  0.15484405D+01  0.15014664D+01  0.10128804D+01  0.23272671D-02
  0.22566663D-02  0.15223337D-02 -0.66618428D+00 -0.64597466D+00 -0.43577069D+00
  0.34944155D+00  0.20596912D-02 -0.14319238D+00  0.57717193D-01  0.10854134D-02
 -0.18758014D-01  0.18627532D-02  0.19146366D-04 -0.34900431D-03 -0.10903504D-01
 -0.69040495D-02  0.17807554D-01 -0.70544316D-02 -0.63178793D-01  0.12540991D-02
 -0.58350656D-03 -0.42907405D-02  0.48742470D-02  0.59108227D-03 -0.16411857D-01
 -0.44997641D-03  0.31756563D-03 -0.55546000D-03  0.23789437D-03  0.32415371D-03
 -0.11386905D-02 -0.34485105D-03 -0.91456794D-02  0.15801887D-03 -0.15317151D-02
  0.18362962D-01 -0.45042104D-03  0.59866395D-02  0.90740768D-02 -0.23635561D-04
 -0.13914943D-02  0.15753677D-02 -0.38433851D-03 -0.87137935D-04 -0.20070461D-03
  0.60475857D-03 -0.48195792D-05  0.88630527D-04  0.54825695D-03  0.26623338D-03
  0.51348332D-03 -0.13032372D-02  0.57285913D-02  0.10331750D-01  0.15234160D-01
  0.21533425D-01  0.49899899D-02  0.78927051D-04  0.23644433D-01  0.57536169D-02
 -0.54798421D-02  0.12805489D-01  0.53716208D-02 -0.86415222D-03  0.19219839D-02
  0.22597434D-03 -0.43763303D-03 -0.11130644D-02  0.29261405D-02 -0.18130761D-02
  0.11377709D-01  0.90284792D-02  0.17613406D-02 -0.35841004D-04  0.12790517D-03
 -0.92064168D-04  0.12045378D-02  0.84364312D-03 -0.21323638D-03  0.62070504D-02
  0.11194671D-01  0.16506536D-01  0.19253173D-01  0.54747659D-02  0.87068627D-04
  0.18332234D-01 -0.37611872D-02 -0.49172323D-02  0.10048760D-01 -0.48297732D-02
 -0.75693531D-03  0.16135627D-02 -0.33450878D-03 -0.34134905D-03 -0.87884228D-03
  0.24354420D-02 -0.15565997D-02 -0.94053866D-02  0.69778226D-02 -0.97672797D-03
 -0.15270421D-03  0.20011229D-03 -0.47408080D-04 -0.90668203D-03  0.51070963D-03
 -0.46733511D-04
MO    5     MO 0.0        OCC NO =    2.0000000  ORB. ENERGY =    0.000000
  0.88016689D-01  0.16404864D+00  0.27816751D+00  0.42097695D+00  0.52513557D+00
  0.45064444D+00  0.17257288D+00 -0.11952072D-02 -0.12823788D-01 -0.47270899D-01
 -0.13821734D+00 -0.16655861D+00  0.20063750D+00  0.13424191D+00  0.87183067D-01
  0.88938026D-02  0.86347655D+00  0.83728180D+00  0.56482536D+00 -0.38042118D-01
 -0.36888058D-01 -0.24884466D-01  0.87080744D+00  0.84439029D+00  0.56962070D+00
  0.19486353D+00 -0.93695989D-02  0.18668036D+00  0.32185572D-01 -0.18146590D-02
  0.25603789D-01  0.10387508D-02 -0.34460129D-04  0.47355491D-03  0.85557013D-02
  0.14368167D-01 -0.22923868D-01 -0.39338524D-02 -0.35231194D-01  0.34938874D-02
 -0.52861155D-03  0.66629396D-02 -0.61343280D-02  0.32961272D-03 -0.91519522D-02
  0.47834358D-03 -0.39720476D-03  0.70336094D-03 -0.30615618D-03  0.18076196D-03
 -0.63498246D-03  0.33868813D-03 -0.51000215D-02 -0.26018198D-03  0.25765960D-02
  0.10239972D-01  0.92825283D-03 -0.61802519D-02  0.50600928D-02 -0.14770689D-03
 -0.15495362D-02  0.87849234D-03 -0.21432357D-03  0.85935377D-04  0.16839174D-03
  0.33723921D-03 -0.95694607D-04 -0.14363565D-03  0.30573149D-03 -0.16211152D-03
 -0.36153958D-03 -0.72674071D-03 -0.15284571D-02 -0.27566352D-02 -0.40646571D-02
 -0.23362748D-01 -0.73203850D-02 -0.13323629D-03  0.13185146D-01 -0.17809083D-02
  0.12651581D-01  0.71408875D-02 -0.67794054D-02  0.18816882D-02  0.10717803D-02
 -0.43716506D-03  0.53071012D-03  0.90719644D-03 -0.36136269D-02  0.27064305D-02
  0.63446963D-02  0.50346656D-02 -0.42909905D-03  0.88255918D-04 -0.20943930D-03
  0.12118338D-03  0.67170171D-03  0.47045144D-03  0.18718094D-03 -0.49049326D-02
 -0.88462479D-02 -0.13043787D-01 -0.23780072D-01 -0.80200757D-02 -0.12789667D-03
  0.10222837D-01  0.12731039D-02  0.95264479D-02  0.56036180D-02  0.62169571D-02
  0.14841775D-02  0.89979148D-03  0.52085670D-03  0.43729231D-03  0.96444115D-03
 -0.31793194D-02  0.22148782D-02 -0.52448453D-02  0.38911319D-02  0.66031936D-03
  0.20699554D-03 -0.28627322D-03  0.79277676D-04 -0.50560463D-03  0.28479351D-03
  0.68901783D-04
END DATA
 TOTAL ENERGY =    -76.460494396461 THE VIRIAL(-V/T)=   2.00629291
