 82
GAUSSIAN              5 MOL ORBITALS    126 PRIMITIVES        3 NUCLEI   B3LYP
  O    1    (CENTRE  1)   0.00000000  0.00000000 -0.08633025  CHARGE =  8.0
  H    2    (CENTRE  2)   0.00000000 -1.44255835 -1.09730160  CHARGE =  1.0
  H    3    (CENTRE  3)   0.00000000  1.44255835 -1.00281530  CHARGE =  1.0
CENTRE ASSIGNMENTS    1  1  1  1  1  1  1  1  1  1  1  1  1  1  1  1  1  1  1  1
CENTRE ASSIGNMENTS    1  1  1  1  1  1  1  1  1  1  1  1  1  1  1  1  1  1  1  1
CENTRE ASSIGNMENTS    1  1  1  1  1  1  1  1  1  1  1  1  1  1  1  1  1  1  1  1
CENTRE ASSIGNMENTS    1  1  1  1  1  1  1  1  1  1  1  1  2  2  2  2  2  2  2  2
CENTRE ASSIGNMENTS    2  2  2  2  2  2  2  2  2  2  2  2  2  2  2  2  2  2  2  3
CENTRE ASSIGNMENTS    3  3  3  3  3  3  3  3  3  3  3  3  3  3  3  3  3  3  3  3
CENTRE ASSIGNMENTS    3  3  3  3  3  3
TYPE ASSIGNMENTS      1  1  1  1  1  1  1  1  1  1  1  1  1  1  1  1  2  2  2  3
TYPE ASSIGNMENTS      3  3  4  4  4  2  3  4  2  3  4  2  3  4  5  6  7  8  9 10
TYPE ASSIGNMENTS      5  6  7  8  9 10  5  6  7  8  9 10 11 12 13 17 14 15 18 19
TYPE ASSIGNMENTS     16 20 11 12 13 17 14 15 18 19 16 20  1  1  1  1  1  1  2  3
TYPE ASSIGNMENTS      4  2  3  4  2  3  4  5  6  7  8  9 10  5  6  7  8  9 10  1
TYPE ASSIGNMENTS      1  1  1  1  1  2  3  4  2  3  4  2  3  4  5  6  7  8  9 10
TYPE ASSIGNMENTS      5  6  7  8  9 10
EXPONENTS  0.1533000D+05 0.2299000D+04 0.5224000D+03 0.1473000D+03 0.4755000D+02
EXPONENTS  0.1676000D+02 0.6207000D+01 0.5224000D+03 0.1473000D+03 0.4755000D+02
EXPONENTS  0.1676000D+02 0.6207000D+01 0.6882000D+00 0.1752000D+01 0.2384000D+00
EXPONENTS  0.7376000D-01 0.3446000D+02 0.7749000D+01 0.2280000D+01 0.3446000D+02
EXPONENTS  0.7749000D+01 0.2280000D+01 0.3446000D+02 0.7749000D+01 0.2280000D+01
EXPONENTS  0.7156000D+00 0.7156000D+00 0.7156000D+00 0.2140000D+00 0.2140000D+00
EXPONENTS  0.2140000D+00 0.5974000D-01 0.5974000D-01 0.5974000D-01 0.2314000D+01
EXPONENTS  0.2314000D+01 0.2314000D+01 0.2314000D+01 0.2314000D+01 0.2314000D+01
EXPONENTS  0.6450000D+00 0.6450000D+00 0.6450000D+00 0.6450000D+00 0.6450000D+00
EXPONENTS  0.6450000D+00 0.2140000D+00 0.2140000D+00 0.2140000D+00 0.2140000D+00
EXPONENTS  0.2140000D+00 0.2140000D+00 0.1428000D+01 0.1428000D+01 0.1428000D+01
EXPONENTS  0.1428000D+01 0.1428000D+01 0.1428000D+01 0.1428000D+01 0.1428000D+01
EXPONENTS  0.1428000D+01 0.1428000D+01 0.5000000D+00 0.5000000D+00 0.5000000D+00
EXPONENTS  0.5000000D+00 0.5000000D+00 0.5000000D+00 0.5000000D+00 0.5000000D+00
EXPONENTS  0.5000000D+00 0.5000000D+00 0.3387000D+02 0.5095000D+01 0.1159000D+01
EXPONENTS  0.3258000D+00 0.1027000D+00 0.2526000D-01 0.1407000D+01 0.1407000D+01
EXPONENTS  0.1407000D+01 0.3880000D+00 0.3880000D+00 0.3880000D+00 0.1020000D+00
EXPONENTS  0.1020000D+00 0.1020000D+00 0.1057000D+01 0.1057000D+01 0.1057000D+01
EXPONENTS  0.1057000D+01 0.1057000D+01 0.1057000D+01 0.2470000D+00 0.2470000D+00
EXPONENTS  0.2470000D+00 0.2470000D+00 0.2470000D+00 0.2470000D+00 0.3387000D+02
EXPONENTS  0.5095000D+01 0.1159000D+01 0.3258000D+00 0.1027000D+00 0.2526000D-01
EXPONENTS  0.1407000D+01 0.1407000D+01 0.1407000D+01 0.3880000D+00 0.3880000D+00
EXPONENTS  0.3880000D+00 0.1020000D+00 0.1020000D+00 0.1020000D+00 0.1057000D+01
EXPONENTS  0.1057000D+01 0.1057000D+01 0.1057000D+01 0.1057000D+01 0.1057000D+01
EXPONENTS  0.2470000D+00 0.2470000D+00 0.2470000D+00 0.2470000D+00 0.2470000D+00
EXPONENTS  0.2470000D+00
MO    1     MO 0.0        OCC NO =    2.0000000  ORB. ENERGY =    0.000000
  0.39619531D+00  0.73844291D+00  0.12521337D+01  0.18949713D+01  0.23638273D+01
  0.20285155D+01  0.77681366D+00  0.72441263D-03  0.77724721D-02  0.28650796D-01
  0.83773246D-01  0.10095084D+00 -0.12160598D+00 -0.28632545D-01 -0.17473578D-02
  0.27494307D-02 -0.77993106D-02 -0.75627078D-02 -0.51017580D-02 -0.34796997D-01
 -0.33741382D-01 -0.22761737D-01  0.82610523D+00  0.80104419D+00  0.54037968D+00
 -0.17583454D-02 -0.47349391D-02  0.17895138D+00 -0.28324768D-03  0.46841066D-03
  0.19000160D-01 -0.88379794D-05  0.95424605D-05  0.40756097D-03  0.29764150D-01
 -0.10784276D-01 -0.18979874D-01 -0.18805434D-04  0.32320184D-03  0.23760617D-02
  0.43811459D-02  0.16040899D-02 -0.59852358D-02  0.60323317D-07  0.75855865D-04
 -0.93814426D-03 -0.67114496D-03  0.10436344D-02 -0.37248946D-03  0.39207477D-06
  0.43850310D-05 -0.25590597D-03  0.47343397D-04 -0.15786766D-03 -0.32728973D-03
 -0.11277499D-03 -0.32986995D-03 -0.10327721D-01 -0.29255202D-04  0.80347294D-03
  0.11309590D-01 -0.31831488D-05  0.45563045D-06 -0.32172858D-04  0.39644957D-03
  0.45135518D-06 -0.10495171D-03  0.81091264D-04 -0.18182465D-05  0.20147028D-03
 -0.12704400D-02 -0.17617693D-05 -0.22782074D-01 -0.41088409D-01 -0.60584835D-01
 -0.36030005D-01 -0.31399811D-02 -0.14987278D-04 -0.11512365D-03 -0.24787974D-01
 -0.67236529D-02 -0.62931370D-04 -0.76423592D-02 -0.62149430D-03 -0.95891813D-05
  0.10678808D-03  0.67881867D-03  0.38019154D-02 -0.58084595D-02  0.20065441D-02
 -0.57398383D-04 -0.39927683D-04 -0.90571171D-02 -0.18505270D-04 -0.32539764D-04
  0.51045034D-04 -0.63948433D-05 -0.38312739D-05  0.54234423D-03 -0.24329988D-01
 -0.43880135D-01 -0.64701233D-01 -0.40039924D-01 -0.33979224D-02 -0.20878734D-04
 -0.12319221D-03  0.28820054D-01 -0.72538696D-02 -0.67177227D-04  0.87214412D-02
 -0.48055255D-03 -0.10010019D-04 -0.12629732D-03  0.69661390D-03  0.45690295D-02
 -0.73105968D-02  0.27415673D-02  0.63180255D-04 -0.39741561D-04  0.10364722D-01
 -0.79466928D-04  0.10077855D-04  0.69389073D-04  0.70191812D-05 -0.38830846D-05
 -0.68535854D-03
MO    2     MO 0.0        OCC NO =    2.0000000  ORB. ENERGY =    0.000000
  0.31725823D+00  0.59131718D+00  0.10026614D+01  0.15174214D+01  0.18928635D+01
  0.16243585D+01  0.62204302D+00 -0.17030862D-03 -0.18272998D-02 -0.67357710D-02
 -0.19694999D-01 -0.23733432D-01  0.28589434D-01  0.54990147D-01 -0.27754030D-01
 -0.54729348D-02  0.47460282D-01  0.46020509D-01  0.31045163D-01 -0.11726915D+00
 -0.11371163D+00 -0.76709191D-01 -0.11599040D+01 -0.11247167D+01 -0.75872724D+00
  0.10699865D-01 -0.23901586D-01 -0.25153138D+00  0.17236158D-02 -0.20094195D-02
 -0.29929071D-01  0.53780778D-04 -0.23992375D-05 -0.64245234D-03 -0.36310549D-01
  0.83592211D-02  0.27951328D-01  0.11443463D-03 -0.19667444D-02  0.97647729D-02
 -0.42565331D-02 -0.41631683D-02  0.84197014D-02 -0.36707882D-06 -0.46159730D-03
  0.13468778D-02  0.79939542D-03 -0.13087180D-02  0.50932253D-03 -0.23858493D-05
 -0.26683744D-04 -0.11473107D-03 -0.28809354D-03 -0.45002260D-03  0.94285169D-03
  0.68625716D-03  0.98189669D-03  0.14812103D-01  0.17802345D-03  0.36817112D-03
 -0.17640658D-01  0.19370063D-04 -0.27725976D-05 -0.11869387D-05 -0.64207872D-03
 -0.27465817D-05  0.15034622D-03 -0.42078450D-03  0.11064374D-04 -0.14678540D-03
  0.23470206D-02  0.10720700D-04  0.26463387D-01  0.47727808D-01  0.70374625D-01
  0.48880361D-01  0.62863872D-02  0.54227990D-04  0.70054923D-03  0.25438740D-01
  0.34129997D-02  0.38294930D-03  0.95041637D-02 -0.34555654D-03  0.58351984D-04
  0.83882732D-06 -0.97093695D-03 -0.29069675D-02  0.58526468D-02 -0.29456793D-02
  0.34928003D-03  0.24296751D-03  0.58889840D-02 -0.18071326D-06  0.12766601D-03
 -0.12748530D-03  0.38913832D-04  0.23314027D-04 -0.66487746D-03  0.19137400D-01
  0.34515088D-01  0.50892477D-01  0.34656387D-01  0.40529492D-02  0.56288908D-04
  0.74964792D-03 -0.21457266D-01 -0.35534705D-02  0.40878615D-03 -0.72871491D-02
 -0.36255723D-02  0.60912861D-04  0.12822090D-03 -0.10968827D-02 -0.12587692D-02
  0.49377604D-02 -0.36789911D-02 -0.38446382D-03  0.24183492D-03 -0.26912344D-03
  0.59388269D-04  0.82916928D-04 -0.14230520D-03 -0.42713047D-04  0.23629305D-04
  0.98817314D-03
MO    3     MO 0.0        OCC NO =    2.0000000  ORB. ENERGY =    0.000000
 -0.29425242D-02 -0.54843814D-02 -0.92995393D-02 -0.14073864D-01 -0.17556036D-01
 -0.15065691D-01 -0.57693591D-02 -0.20360925D-03 -0.21845937D-02 -0.80528235D-02
 -0.23545984D-01 -0.28374055D-01  0.34179556D-01  0.20641949D-01  0.14117138D-01
  0.14183201D-02  0.17688056D+01  0.17151464D+01  0.11570277D+01  0.47455571D-01
  0.46015941D-01  0.31042082D-01  0.14316186D+00  0.13881885D+00  0.93646374D-01
  0.39877514D+00  0.92642381D-02  0.30890468D-01  0.64237740D-01  0.60061773D-03
  0.44371107D-02  0.20043653D-02  0.13981211D-05  0.93263623D-04  0.94034368D-03
  0.31788578D-02 -0.41192015D-02  0.42648843D-02 -0.73298942D-01 -0.41622546D-02
 -0.93812951D-04  0.11027139D-02 -0.10089009D-02 -0.13680725D-04 -0.17203351D-01
 -0.23386756D-03 -0.65559021D-04  0.11805653D-03 -0.52497506D-04 -0.88918635D-04
 -0.99448114D-03  0.93222653D-04 -0.10737009D-01  0.25754470D-03  0.27393778D-03
  0.25576239D-01 -0.38696552D-03 -0.93160617D-03  0.66347871D-02 -0.38566859D-03
  0.10979283D-03  0.72190630D-03 -0.10333243D-03 -0.13622524D-05 -0.14684992D-04
 -0.10236284D-03 -0.16869581D-05 -0.12397993D-04  0.41236012D-03  0.57737153D-05
  0.56452967D-04  0.39955164D-03 -0.12855795D-02 -0.23185956D-02 -0.34187679D-02
 -0.57023501D-02 -0.14448805D-02 -0.18103710D-04  0.26108892D-01 -0.83269982D-03
  0.13349085D-02  0.14272205D-01 -0.13706212D-02  0.12621020D-03  0.21747303D-02
 -0.77301595D-04  0.98640194D-04  0.35734566D-03 -0.81431689D-03  0.45697123D-03
  0.13017379D-01  0.90551989D-02 -0.44353013D-03  0.23165714D-04 -0.45138039D-04
  0.21972325D-04  0.14502865D-02  0.86889459D-03  0.25153867D-04  0.15433174D-02
  0.27834365D-02  0.41041755D-02 -0.41998026D-03 -0.79554975D-03 -0.21592402D-04
  0.27938760D-01 -0.13809892D-02  0.35682081D-02  0.15235123D-01  0.60235428D-03
  0.10023759D-02  0.22701721D-02  0.66983029D-04  0.12359148D-03 -0.25676372D-03
 -0.29093259D-03  0.54769631D-03 -0.14328650D-01  0.90129883D-02 -0.14536652D-02
  0.27297061D-04 -0.52564372D-04  0.25267311D-04 -0.15918800D-02  0.88064472D-03
 -0.69465559D-04
MO    4     MO 0.0        OCC NO =    2.0000000  ORB. ENERGY =    0.000000
  0.30379888D-01  0.56623116D-01  0.96012450D-01  0.14530463D+00  0.18125608D+00
  0.15554468D+00  0.59565349D-01  0.30225348D-03  0.32429815D-02  0.11954240D-01
  0.34953497D-01  0.42120664D-01 -0.50738803D-01 -0.27125068D-01 -0.25837211D-01
 -0.25983509D-02 -0.75336318D-02 -0.73050887D-02 -0.49279697D-02  0.14519431D+01
  0.14078964D+01  0.94975856D+00 -0.24507199D+00 -0.23763739D+00 -0.16030878D+00
 -0.16984484D-02  0.28729613D+00 -0.51663603D-01 -0.27359902D-03  0.20151946D-01
 -0.67085069D-02 -0.85369189D-05  0.10764861D-03 -0.15086136D-03 -0.38948902D-02
  0.12532527D-04  0.38823577D-02 -0.18164839D-04  0.31219216D-03 -0.13053880D+00
  0.30401429D-03 -0.20379641D-02  0.17339498D-02  0.58268441D-07  0.73271880D-04
 -0.11143620D-01  0.28206778D-03 -0.45251751D-03  0.17044973D-03  0.37871898D-06
  0.42356575D-05  0.26805373D-02  0.45730672D-04  0.74638486D-02 -0.61405160D-03
 -0.10893338D-03 -0.12141949D-01  0.18223838D-02 -0.28258641D-04 -0.10249596D-01
  0.19771026D-04 -0.30747168D-05  0.44010968D-06  0.20776577D-03 -0.11888341D-03
  0.43598004D-06 -0.29360456D-03 -0.17379132D-03 -0.17563091D-05 -0.32969276D-03
  0.53044156D-03 -0.17017557D-05 -0.37436162D-01 -0.67517659D-01 -0.99554749D-01
 -0.67247329D-01 -0.68446820D-02  0.10209986D-03 -0.11120204D-03 -0.26682191D-01
 -0.32423576D-01 -0.60787651D-04 -0.83187439D-02 -0.12008723D-01 -0.92625316D-05
  0.10675520D-03 -0.43538999D-03  0.80637627D-02 -0.53749944D-02 -0.26887683D-02
 -0.55443142D-04 -0.38567571D-04 -0.24487623D-01 -0.11777415D-03  0.22479702D-03
 -0.10702287D-03 -0.61770068D-05 -0.37007639D-05 -0.61145952D-03  0.40424301D-01
  0.72906892D-01  0.10750117D+00  0.83693492D-01  0.10485278D-01 -0.34910068D-04
 -0.11899574D-03 -0.32227196D-01  0.26408269D-01 -0.64888875D-04 -0.12578549D-01
  0.98141490D-02 -0.96690336D-05  0.17878993D-04 -0.76307291D-04 -0.85708166D-02
  0.87726655D-02 -0.20184885D-03  0.61028058D-04 -0.38387789D-04 -0.23576065D-01
  0.16210953D-03 -0.17506618D-03  0.12956645D-04  0.67800770D-05 -0.37508097D-05
 -0.78317173D-04
MO    5     MO 0.0        OCC NO =    2.0000000  ORB. ENERGY =    0.000000
  0.26220858D-01  0.48871368D-01  0.82868272D-01  0.12541232D+00  0.15644198D+00
  0.13425049D+00  0.51410807D-01 -0.15096231D-02 -0.16197265D-01 -0.59706170D-01
 -0.17457734D+00 -0.21037418D+00  0.25341800D+00  0.15872243D+00  0.95763497D-01
  0.90183544D-02 -0.24917150D+00 -0.24161254D+00 -0.16299039D+00  0.27172867D+00
  0.26348540D+00  0.17774570D+00  0.77689205D+00  0.75332395D+00  0.50818789D+00
 -0.56175422D-01  0.52673784D-01  0.16733454D+00 -0.90491653D-02  0.32569445D-02
  0.25405375D-01 -0.28235478D-03  0.59145059D-05  0.53148970D-03 -0.10547792D-02
  0.24495289D-01 -0.23440509D-01 -0.60079392D-03  0.10325616D-01 -0.23814443D-01
 -0.16230322D-02  0.70463267D-02 -0.54232945D-02  0.19272027D-05  0.24234347D-02
 -0.10373346D-02 -0.30064496D-03  0.56979386D-03 -0.26914890D-03  0.12525961D-04
  0.14009248D-03  0.56687577D-03  0.15125216D-02  0.15218020D-02  0.21530125D-02
 -0.36029227D-02 -0.21825126D-02 -0.35237726D-02 -0.93464194D-03 -0.23828933D-02
 -0.29352649D-02 -0.10169488D-03  0.14556431D-04 -0.15171064D-04 -0.23535814D-03
  0.14419845D-04  0.28823651D-04 -0.16544173D-03 -0.58089137D-04  0.16689540D-04
  0.87151615D-03 -0.56284808D-04 -0.22404879D-02 -0.40408121D-02 -0.59581751D-02
 -0.28008207D-01 -0.87542270D-02 -0.12080258D-03 -0.36779576D-02  0.51686723D-03
  0.11317035D-01 -0.20105244D-02 -0.74286849D-02  0.12126492D-02 -0.30635409D-03
 -0.55515502D-03  0.50720140D-03  0.16202004D-02 -0.43215407D-02  0.27013403D-02
 -0.18337571D-02 -0.12756052D-02 -0.10029466D-02  0.16855324D-03 -0.30188485D-03
  0.13333161D-03 -0.20430174D-03 -0.12240111D-03  0.53431584D-04  0.14140101D-01
  0.25502254D-01  0.37603058D-01  0.23425885D-02 -0.50860932D-02 -0.14084851D-03
 -0.39357309D-02 -0.13818025D-01  0.24081577D-01 -0.21461705D-02  0.29952799D-02
  0.61433559D-02 -0.31979897D-03  0.50333081D-03  0.64892134D-03 -0.19463403D-02
 -0.11611605D-02  0.31075008D-02  0.20184757D-02 -0.12696589D-02 -0.99820728D-02
  0.20267282D-03 -0.35237019D-03  0.14969737D-03  0.22424802D-03 -0.12405635D-03
 -0.28107851D-03
END DATA
 TOTAL ENERGY =    -76.461105397740 THE VIRIAL(-V/T)=   2.00371314
