 82
GAUSSIAN              5 MOL ORBITALS    126 PRIMITIVES        3 NUCLEI   B3LYP
  O    1    (CENTRE  1)   0.00000000  0.00000000  0.10264236  CHARGE =  8.0
  H    2    (CENTRE  2)   0.00000000 -1.44255835 -1.09730160  CHARGE =  1.0
  H    3    (CENTRE  3)   0.00000000  1.44255835 -1.19178791  CHARGE =  1.0
CENTRE ASSIGNMENTS    1  1  1  1  1  1  1  1  1  1  1  1  1  1  1  1  1  1  1  1
CENTRE ASSIGNMENTS    1  1  1  1  1  1  1  1  1  1  1  1  1  1  1  1  1  1  1  1
CENTRE ASSIGNMENTS    1  1  1  1  1  1  1  1  1  1  1  1  1  1  1  1  1  1  1  1
CENTRE ASSIGNMENTS    1  1  1  1  1  1  1  1  1  1  1  1  2  2  2  2  2  2  2  2
CENTRE ASSIGNMENTS    2  2  2  2  2  2  2  2  2  2  2  2  2  2  2  2  2  2  2  3
CENTRE ASSIGNMENTS    3  3  3  3  3  3  3  3  3  3  3  3  3  3  3  3  3  3  3  3
CENTRE ASSIGNMENTS    3  3  3  3  3  3
TYPE ASSIGNMENTS      1  1  1  1  1  1  1  1  1  1  1  1  1  1  1  1  2  2  2  3
TYPE ASSIGNMENTS      3  3  4  4  4  2  3  4  2  3  4  2  3  4  5  6  7  8  9 10
TYPE ASSIGNMENTS      5  6  7  8  9 10  5  6  7  8  9 10 11 12 13 17 14 15 18 19
TYPE ASSIGNMENTS     16 20 11 12 13 17 14 15 18 19 16 20  1  1  1  1  1  1  2  3
TYPE ASSIGNMENTS      4  2  3  4  2  3  4  5  6  7  8  9 10  5  6  7  8  9 10  1
TYPE ASSIGNMENTS      1  1  1  1  1  2  3  4  2  3  4  2  3  4  5  6  7  8  9 10
TYPE ASSIGNMENTS      5  6  7  8  9 10
EXPONENTS  0.1533000D+05 0.2299000D+04 0.5224000D+03 0.1473000D+03 0.4755000D+02
EXPONENTS  0.1676000D+02 0.6207000D+01 0.5224000D+03 0.1473000D+03 0.4755000D+02
EXPONENTS  0.1676000D+02 0.6207000D+01 0.6882000D+00 0.1752000D+01 0.2384000D+00
EXPONENTS  0.7376000D-01 0.3446000D+02 0.7749000D+01 0.2280000D+01 0.3446000D+02
EXPONENTS  0.7749000D+01 0.2280000D+01 0.3446000D+02 0.7749000D+01 0.2280000D+01
EXPONENTS  0.7156000D+00 0.7156000D+00 0.7156000D+00 0.2140000D+00 0.2140000D+00
EXPONENTS  0.2140000D+00 0.5974000D-01 0.5974000D-01 0.5974000D-01 0.2314000D+01
EXPONENTS  0.2314000D+01 0.2314000D+01 0.2314000D+01 0.2314000D+01 0.2314000D+01
EXPONENTS  0.6450000D+00 0.6450000D+00 0.6450000D+00 0.6450000D+00 0.6450000D+00
EXPONENTS  0.6450000D+00 0.2140000D+00 0.2140000D+00 0.2140000D+00 0.2140000D+00
EXPONENTS  0.2140000D+00 0.2140000D+00 0.1428000D+01 0.1428000D+01 0.1428000D+01
EXPONENTS  0.1428000D+01 0.1428000D+01 0.1428000D+01 0.1428000D+01 0.1428000D+01
EXPONENTS  0.1428000D+01 0.1428000D+01 0.5000000D+00 0.5000000D+00 0.5000000D+00
EXPONENTS  0.5000000D+00 0.5000000D+00 0.5000000D+00 0.5000000D+00 0.5000000D+00
EXPONENTS  0.5000000D+00 0.5000000D+00 0.3387000D+02 0.5095000D+01 0.1159000D+01
EXPONENTS  0.3258000D+00 0.1027000D+00 0.2526000D-01 0.1407000D+01 0.1407000D+01
EXPONENTS  0.1407000D+01 0.3880000D+00 0.3880000D+00 0.3880000D+00 0.1020000D+00
EXPONENTS  0.1020000D+00 0.1020000D+00 0.1057000D+01 0.1057000D+01 0.1057000D+01
EXPONENTS  0.1057000D+01 0.1057000D+01 0.1057000D+01 0.2470000D+00 0.2470000D+00
EXPONENTS  0.2470000D+00 0.2470000D+00 0.2470000D+00 0.2470000D+00 0.3387000D+02
EXPONENTS  0.5095000D+01 0.1159000D+01 0.3258000D+00 0.1027000D+00 0.2526000D-01
EXPONENTS  0.1407000D+01 0.1407000D+01 0.1407000D+01 0.3880000D+00 0.3880000D+00
EXPONENTS  0.3880000D+00 0.1020000D+00 0.1020000D+00 0.1020000D+00 0.1057000D+01
EXPONENTS  0.1057000D+01 0.1057000D+01 0.1057000D+01 0.1057000D+01 0.1057000D+01
EXPONENTS  0.2470000D+00 0.2470000D+00 0.2470000D+00 0.2470000D+00 0.2470000D+00
EXPONENTS  0.2470000D+00
MO    1     MO 0.0        OCC NO =    2.0000000  ORB. ENERGY =    0.000000
  0.26632762D-01  0.49639090D-01  0.84170052D-01  0.12738242D+00  0.15889953D+00
  0.13635944D+00  0.52218421D-01 -0.18483096D-03 -0.19831149D-02 -0.73101348D-02
 -0.21374405D-01 -0.25757198D-01  0.31027274D-01  0.22044073D-01  0.32060442D-02
 -0.57806194D-03  0.17605654D+01  0.17071562D+01  0.11516375D+01 -0.38285787D-01
 -0.37124334D-01 -0.25043857D-01 -0.19488621D+00 -0.18897406D+00 -0.12748079D+00
  0.39774613D+00 -0.79019816D-02 -0.43046644D-01  0.66588206D-01 -0.74843235D-03
 -0.48914513D-02  0.21865505D-02 -0.10421863D-04 -0.88235655D-04 -0.77835838D-02
  0.19287542D-02  0.58548296D-02 -0.37487217D-02 -0.69265842D-01  0.38928785D-02
 -0.15293771D-02 -0.25957812D-03  0.17889553D-02 -0.37776333D-03 -0.19458487D-01
  0.45157783D-03  0.53941479D-04 -0.14308197D-03  0.89140490D-04  0.64076019D-04
 -0.14873082D-02 -0.33050985D-04 -0.10303258D-01 -0.16587149D-03 -0.99611781D-04
  0.19059754D-01  0.38795397D-03  0.32236097D-02  0.11850019D-01  0.10966050D-03
 -0.29247743D-02  0.32876033D-03 -0.62053912D-03 -0.89453377D-05 -0.12180435D-03
  0.97753029D-03  0.69803293D-05  0.13950443D-03  0.88408708D-03  0.19855684D-04
  0.22590862D-03 -0.41074971D-03  0.66471519D-02  0.11988412D-01  0.17676907D-01
  0.10229557D-01  0.10881438D-02  0.13779723D-05  0.22895104D-01  0.56913265D-02
  0.27923285D-02  0.12455404D-01  0.18810304D-02  0.67015486D-03  0.19489774D-02
 -0.80392593D-05 -0.11092501D-03 -0.86116106D-03  0.98073718D-03 -0.11957612D-03
  0.11307117D-01  0.89406551D-02  0.21980737D-02 -0.27308658D-04  0.28342250D-04
 -0.10335919D-05  0.11175110D-02  0.72658856D-03  0.19475550D-05  0.47722498D-02
  0.86069490D-02  0.12690941D-01  0.69457158D-02  0.79534147D-03  0.10609163D-04
  0.21255211D-01 -0.44600260D-02  0.15795950D-02  0.11616072D-01 -0.15499007D-02
  0.26561126D-03  0.18487626D-02 -0.30185019D-04 -0.10509563D-03 -0.51337592D-03
  0.77621533D-03 -0.26283941D-03 -0.10381357D-01  0.87962361D-02 -0.12238792D-02
 -0.33928087D-04  0.39189061D-04 -0.52609736D-05 -0.99055166D-03  0.66026483D-03
 -0.10229565D-04
MO    2     MO 0.0        OCC NO =    2.0000000  ORB. ENERGY =    0.000000
  0.43763429D+00  0.81567836D+00  0.13830973D+01  0.20931707D+01  0.26110654D+01
  0.22406826D+01  0.85806239D+00  0.77621792D-03  0.83283088D-02  0.30699715D-01
  0.89764164D-01  0.10817018D+00 -0.13030245D+00 -0.27422280D-01 -0.19003451D-01
  0.10234045D-02  0.93282004D-01  0.90452166D-01  0.61018497D-01  0.82791634D-01
  0.80280035D-01  0.54156438D-01  0.56139124D+00  0.54436066D+00  0.36722249D+00
  0.21074228D-01  0.16228156D-01  0.12686994D+00  0.35281173D-02  0.12112196D-02
  0.14232021D-01  0.11585245D-03  0.13833221D-04  0.25489981D-03  0.22959576D-01
 -0.58202691D-02 -0.17139306D-01 -0.19862271D-03 -0.36699895D-02 -0.83083852D-02
  0.55627161D-02 -0.11115336D-03 -0.54515627D-02 -0.20015457D-04 -0.10309907D-02
 -0.32285352D-03 -0.70286340D-04  0.35239527D-03 -0.28210893D-03  0.33950113D-05
 -0.78803713D-04  0.16674184D-03 -0.54590901D-03  0.40043304D-03  0.28835956D-03
  0.10098643D-02 -0.43770330D-03 -0.94016297D-02  0.62786279D-03 -0.76359583D-03
  0.85365510D-02  0.17419076D-04 -0.32878718D-04  0.38920649D-04  0.27372164D-03
  0.51793580D-04  0.18610805D-04 -0.77753517D-03  0.46842574D-04 -0.13537275D-03
 -0.43629746D-04 -0.21763211D-04 -0.20605636D-01 -0.37163114D-01 -0.54796990D-01
 -0.29944506D-01 -0.28377706D-02  0.15492326D-05  0.12130769D-02 -0.18425475D-01
 -0.94105251D-02  0.65993861D-03 -0.58297493D-02 -0.22175474D-02  0.10326484D-03
  0.52354561D-05  0.30060978D-03  0.33178960D-02 -0.35535652D-02  0.23566915D-03
  0.59909761D-03  0.47371272D-03 -0.89372038D-02  0.81695088D-04 -0.99457360D-04
  0.17762272D-04  0.59210335D-04  0.38497654D-04 -0.12691550D-04 -0.16453016D-01
 -0.29673692D-01 -0.43753842D-01 -0.22039856D-01 -0.20504838D-02 -0.10093740D-04
  0.11261886D-02  0.14732885D-01 -0.64071100D-02  0.61546732D-03  0.45551359D-02
 -0.10609471D-02  0.97955056D-04  0.33697097D-04  0.30871546D-03  0.21433133D-02
 -0.26044243D-02  0.46111096D-03 -0.55004704D-03  0.46606081D-03  0.56412651D-02
  0.95314811D-04 -0.10733052D-03  0.12015706D-04 -0.52483505D-04  0.34983549D-04
  0.38504336D-04
MO    3     MO 0.0        OCC NO =    2.0000000  ORB. ENERGY =    0.000000
  0.24792115D+00  0.46208426D+00  0.78352879D+00  0.11857875D+01  0.14791765D+01
  0.12693535D+01  0.48609494D+00 -0.29024087D-03 -0.31140941D-02 -0.11479137D-01
 -0.33564323D-01 -0.40446642D-01  0.48722266D-01  0.58532019D-01 -0.18550370D-01
 -0.54169628D-02 -0.32122731D+00 -0.31148243D+00 -0.21012421D+00 -0.53512844D+00
 -0.51889458D+00 -0.35004322D+00 -0.10581904D+01 -0.10260887D+01 -0.69219339D+00
 -0.72571527D-01 -0.11342648D+00 -0.23044752D+00 -0.12149478D-01 -0.12257931D-01
 -0.27302434D-01 -0.39895123D-03 -0.15735389D-03 -0.48884901D-03 -0.34582119D-01
  0.47734182D-02  0.29808701D-01  0.68398014D-03  0.12638031D-01  0.51348936D-01
 -0.55341749D-02 -0.33701283D-02  0.89043032D-02  0.68925527D-04  0.35503352D-02
  0.82032681D-02  0.39819042D-03 -0.83778698D-03  0.43959656D-03 -0.11691112D-04
  0.27136965D-03 -0.21990405D-04  0.18799005D-02 -0.20797755D-02 -0.13115492D-02
 -0.34775837D-02  0.61113507D-02  0.14875896D-01 -0.21621177D-02  0.12797581D-03
 -0.10941249D-01 -0.59984590D-04  0.11322165D-03 -0.53431960D-04 -0.62830265D-03
 -0.17835715D-03  0.40911788D-03  0.44237276D-03 -0.16130779D-03 -0.24882200D-03
  0.14425352D-02  0.74944118D-04  0.36875927D-01  0.66507254D-01  0.98064907D-01
  0.65540054D-01  0.90891915D-02  0.13008662D-04 -0.41773698D-02  0.26797726D-01
  0.14225923D-01 -0.22725745D-02  0.10971276D-01  0.49596690D-02 -0.35560437D-03
 -0.42408268D-05 -0.53779911D-03 -0.51016632D-02  0.50970665D-02  0.45966166D-05
 -0.20630615D-02 -0.16312842D-02  0.12992004D-01 -0.19779712D-03  0.14104501D-03
  0.56752113D-04 -0.20389760D-03 -0.13257110D-03  0.18773499D-03  0.11108851D-01
  0.20035270D-01  0.29541993D-01  0.19529461D-01  0.36945100D-02  0.12977779D-03
 -0.38781600D-02 -0.14888293D-01 -0.31105610D-02 -0.21194325D-02 -0.70647831D-02
 -0.17718142D-02 -0.33731950D-03 -0.40372816D-03 -0.58149774D-03 -0.81812655D-03
  0.38076519D-02 -0.29895254D-02  0.18941502D-02 -0.16049340D-02 -0.83219031D-03
 -0.13464486D-03  0.25657848D-03 -0.12193362D-03  0.18073299D-03 -0.12046987D-03
  0.14603535D-03
MO    4     MO 0.0        OCC NO =    2.0000000  ORB. ENERGY =    0.000000
  0.72640522D-01  0.13538999D+00  0.22957275D+00  0.34743395D+00  0.43339646D+00
  0.37191864D+00  0.14242508D+00 -0.26073143D-03 -0.27974771D-02 -0.10312027D-01
 -0.30151763D-01 -0.36334341D-01  0.43768564D-01  0.34556242D-01  0.46586865D-02
 -0.11363108D-02 -0.87627915D-01 -0.84969601D-01 -0.57319991D-01  0.13570122D+01
  0.13158454D+01  0.88766151D+00 -0.38530127D+00 -0.37361263D+00 -0.25203687D+00
 -0.19796859D-01  0.29116648D+00 -0.86607362D-01 -0.33142680D-02  0.33207323D-01
 -0.10962912D-01 -0.10883030D-03  0.40912633D-03 -0.19173136D-03 -0.12839349D-01
 -0.95536008D-03  0.13794709D-01  0.18658362D-03  0.34475409D-02 -0.12639409D+00
 -0.29184199D-02 -0.90545681D-03  0.38238767D-02  0.18802263D-04  0.96849944D-03
 -0.22234158D-01 -0.20721769D-04 -0.19838803D-03  0.21910979D-03 -0.31892300D-05
  0.74027195D-04 -0.47405373D-03  0.51281991D-03  0.51902215D-02 -0.16204725D-03
 -0.94865349D-03 -0.16256257D-01  0.65249385D-02 -0.58980623D-03  0.68559231D-03
 -0.60387968D-02 -0.16363256D-04  0.30885845D-04  0.68927586D-04 -0.19007682D-03
 -0.48654223D-04 -0.13855510D-02  0.41212267D-03 -0.44003311D-04  0.11787683D-02
  0.15810778D-03  0.20444080D-04 -0.23782876D-01 -0.42893397D-01 -0.63246289D-01
 -0.45141770D-01 -0.58707723D-02  0.15214168D-03 -0.11395488D-02 -0.51409259D-02
 -0.21002331D-01 -0.61993784D-03 -0.20809244D-02 -0.92567635D-02 -0.97005667D-04
  0.46479971D-03 -0.37398372D-03  0.44969410D-02  0.33921820D-03 -0.48361592D-02
 -0.56278459D-03 -0.44499964D-03 -0.13812043D-01  0.10454030D-03  0.19427154D-03
 -0.29881184D-03 -0.55621428D-04 -0.36164201D-04 -0.68238244D-03  0.42823951D-01
  0.77234758D-01  0.11388261D+00  0.73640222D-01  0.10039236D-01 -0.12472927D-03
 -0.10579271D-02 -0.19917190D-01  0.25338093D-01 -0.57816209D-03 -0.74385364D-02
  0.10074070D-01 -0.92017720D-04  0.31432729D-03 -0.22333347D-04 -0.61545323D-02
  0.19525963D-02  0.42019360D-02  0.51670712D-03 -0.43781153D-03 -0.17239619D-01
 -0.30122157D-03 -0.10049295D-04  0.31127086D-03  0.49302330D-04 -0.32863096D-04
 -0.87637306D-03
MO    5     MO 0.0        OCC NO =    2.0000000  ORB. ENERGY =    0.000000
  0.18968272D-01  0.35353740D-01  0.59947234D-01  0.90723763D-01  0.11317074D+00
  0.97117335D-01  0.37190780D-01 -0.15207911D-02 -0.16317090D-01 -0.60147867D-01
 -0.17586883D+00 -0.21193050D+00  0.25529274D+00  0.16018666D+00  0.10465692D+00
  0.10189742D-01 -0.90031551D-01 -0.87300320D-01 -0.58892280D-01 -0.74373291D-01
 -0.72117074D-01 -0.48649752D-01  0.92123909D+00  0.89329203D+00  0.60260953D+00
 -0.20339887D-01 -0.16403016D-01  0.19619242D+00 -0.34051785D-02 -0.19658159D-02
  0.27177318D-01 -0.11181552D-03 -0.26240817D-04  0.46945315D-03  0.74641972D-02
  0.15584931D-01 -0.23049128D-01  0.19170161D-03  0.35421071D-02  0.73264825D-02
 -0.15572766D-02  0.77144918D-02 -0.61572152D-02  0.19318009D-04  0.99506540D-03
  0.86786266D-03 -0.41855084D-03  0.74941903D-03 -0.33086819D-03 -0.32767106D-05
  0.76057763D-04  0.66308435D-04  0.52688657D-03 -0.45986115D-03  0.31881154D-02
 -0.97467509D-03  0.11502373D-02 -0.61304953D-02 -0.60598463D-03  0.22934610D-03
 -0.34338509D-02 -0.16812100D-04  0.31733044D-04 -0.11045370D-04  0.32847132D-03
 -0.49988810D-04  0.44634260D-04 -0.57080246D-04 -0.45210323D-04 -0.11498150D-04
 -0.92833371D-03  0.21004862D-04  0.21214303D-03  0.38260869D-03  0.56415629D-03
 -0.20893296D-01 -0.83772592D-02 -0.16594261D-03 -0.11708067D-02  0.15940464D-02
  0.14538012D-01 -0.63694275D-03 -0.63762073D-02  0.21210783D-02 -0.99666535D-04
 -0.58904270D-03  0.42516117D-03  0.42324693D-03 -0.30197600D-02  0.25965130D-02
 -0.57822179D-03 -0.45720599D-03  0.81200740D-03  0.15460347D-03 -0.24114119D-03
  0.86537713D-04 -0.57147125D-04 -0.37156186D-04  0.19271588D-04 -0.50421451D-02
 -0.90937164D-02 -0.13408680D-01 -0.28366393D-01 -0.95246318D-02 -0.14463645D-03
 -0.10869461D-02  0.55507009D-03  0.10687200D-01 -0.59402109D-03  0.68579883D-02
  0.61138699D-03 -0.94541769D-04  0.57918916D-03  0.36120496D-03  0.10908854D-02
 -0.30055218D-02  0.19146364D-02  0.53088041D-03 -0.44982071D-03  0.16605659D-02
  0.20887748D-03 -0.25054013D-03  0.41662645D-04  0.50654694D-04 -0.33764532D-04
  0.17178584D-03
END DATA
 TOTAL ENERGY =    -76.461532643218 THE VIRIAL(-V/T)=   2.00787758
