 83
GAUSSIAN              5 MOL ORBITALS    126 PRIMITIVES        3 NUCLEI   B3LYP
  O    1    (CENTRE  1)   0.00000000  0.00000000  0.00815606  CHARGE =  8.0
  H    2    (CENTRE  2)   0.09448631 -1.44255835 -1.09730160  CHARGE =  1.0
  H    3    (CENTRE  3)   0.00000000  1.44255835 -1.00281530  CHARGE =  1.0
CENTRE ASSIGNMENTS    1  1  1  1  1  1  1  1  1  1  1  1  1  1  1  1  1  1  1  1
CENTRE ASSIGNMENTS    1  1  1  1  1  1  1  1  1  1  1  1  1  1  1  1  1  1  1  1
CENTRE ASSIGNMENTS    1  1  1  1  1  1  1  1  1  1  1  1  1  1  1  1  1  1  1  1
CENTRE ASSIGNMENTS    1  1  1  1  1  1  1  1  1  1  1  1  2  2  2  2  2  2  2  2
CENTRE ASSIGNMENTS    2  2  2  2  2  2  2  2  2  2  2  2  2  2  2  2  2  2  2  3
CENTRE ASSIGNMENTS    3  3  3  3  3  3  3  3  3  3  3  3  3  3  3  3  3  3  3  3
CENTRE ASSIGNMENTS    3  3  3  3  3  3
TYPE ASSIGNMENTS      1  1  1  1  1  1  1  1  1  1  1  1  1  1  1  1  2  2  2  3
TYPE ASSIGNMENTS      3  3  4  4  4  2  3  4  2  3  4  2  3  4  5  6  7  8  9 10
TYPE ASSIGNMENTS      5  6  7  8  9 10  5  6  7  8  9 10 11 12 13 17 14 15 18 19
TYPE ASSIGNMENTS     16 20 11 12 13 17 14 15 18 19 16 20  1  1  1  1  1  1  2  3
TYPE ASSIGNMENTS      4  2  3  4  2  3  4  5  6  7  8  9 10  5  6  7  8  9 10  1
TYPE ASSIGNMENTS      1  1  1  1  1  2  3  4  2  3  4  2  3  4  5  6  7  8  9 10
TYPE ASSIGNMENTS      5  6  7  8  9 10
EXPONENTS  0.1533000D+05 0.2299000D+04 0.5224000D+03 0.1473000D+03 0.4755000D+02
EXPONENTS  0.1676000D+02 0.6207000D+01 0.5224000D+03 0.1473000D+03 0.4755000D+02
EXPONENTS  0.1676000D+02 0.6207000D+01 0.6882000D+00 0.1752000D+01 0.2384000D+00
EXPONENTS  0.7376000D-01 0.3446000D+02 0.7749000D+01 0.2280000D+01 0.3446000D+02
EXPONENTS  0.7749000D+01 0.2280000D+01 0.3446000D+02 0.7749000D+01 0.2280000D+01
EXPONENTS  0.7156000D+00 0.7156000D+00 0.7156000D+00 0.2140000D+00 0.2140000D+00
EXPONENTS  0.2140000D+00 0.5974000D-01 0.5974000D-01 0.5974000D-01 0.2314000D+01
EXPONENTS  0.2314000D+01 0.2314000D+01 0.2314000D+01 0.2314000D+01 0.2314000D+01
EXPONENTS  0.6450000D+00 0.6450000D+00 0.6450000D+00 0.6450000D+00 0.6450000D+00
EXPONENTS  0.6450000D+00 0.2140000D+00 0.2140000D+00 0.2140000D+00 0.2140000D+00
EXPONENTS  0.2140000D+00 0.2140000D+00 0.1428000D+01 0.1428000D+01 0.1428000D+01
EXPONENTS  0.1428000D+01 0.1428000D+01 0.1428000D+01 0.1428000D+01 0.1428000D+01
EXPONENTS  0.1428000D+01 0.1428000D+01 0.5000000D+00 0.5000000D+00 0.5000000D+00
EXPONENTS  0.5000000D+00 0.5000000D+00 0.5000000D+00 0.5000000D+00 0.5000000D+00
EXPONENTS  0.5000000D+00 0.5000000D+00 0.3387000D+02 0.5095000D+01 0.1159000D+01
EXPONENTS  0.3258000D+00 0.1027000D+00 0.2526000D-01 0.1407000D+01 0.1407000D+01
EXPONENTS  0.1407000D+01 0.3880000D+00 0.3880000D+00 0.3880000D+00 0.1020000D+00
EXPONENTS  0.1020000D+00 0.1020000D+00 0.1057000D+01 0.1057000D+01 0.1057000D+01
EXPONENTS  0.1057000D+01 0.1057000D+01 0.1057000D+01 0.2470000D+00 0.2470000D+00
EXPONENTS  0.2470000D+00 0.2470000D+00 0.2470000D+00 0.2470000D+00 0.3387000D+02
EXPONENTS  0.5095000D+01 0.1159000D+01 0.3258000D+00 0.1027000D+00 0.2526000D-01
EXPONENTS  0.1407000D+01 0.1407000D+01 0.1407000D+01 0.3880000D+00 0.3880000D+00
EXPONENTS  0.3880000D+00 0.1020000D+00 0.1020000D+00 0.1020000D+00 0.1057000D+01
EXPONENTS  0.1057000D+01 0.1057000D+01 0.1057000D+01 0.1057000D+01 0.1057000D+01
EXPONENTS  0.2470000D+00 0.2470000D+00 0.2470000D+00 0.2470000D+00 0.2470000D+00
EXPONENTS  0.2470000D+00
MO    1     MO 0.0        OCC NO =    2.0000000  ORB. ENERGY =    0.000000
  0.60263337D-03  0.11232095D-02  0.19045596D-02  0.28823484D-02  0.35955024D-02
  0.30854760D-02  0.11815734D-02  0.50059067D-04  0.53710093D-03  0.19798552D-02
  0.57889804D-02  0.69760028D-02 -0.84033347D-02 -0.45199976D-02 -0.10238651D-01
 -0.11728654D-02 -0.39589924D+00 -0.38388909D+00 -0.25896931D+00  0.14309149D+01
  0.13875062D+01  0.93600346D+00 -0.13166961D+00 -0.12767523D+00 -0.86128957D-01
 -0.88512049D-01  0.29165230D+00 -0.26882856D-01 -0.13825850D-01  0.25000555D-01
 -0.27500943D-02 -0.42182368D-03  0.20895631D-03 -0.70619642D-04 -0.46452783D-02
  0.37139291D-02  0.93134923D-03  0.45962906D-02  0.18432956D-01 -0.13315134D+00
 -0.11199945D-03 -0.77803423D-03  0.89003368D-03  0.71127273D-03  0.40818107D-02
 -0.15350016D-01  0.21882737D-03 -0.29940686D-03  0.80579489D-04 -0.19345363D-04
  0.19712088D-03  0.15678333D-02  0.25184765D-02  0.68553818D-02 -0.47948197D-03
 -0.62082858D-02 -0.13285425D-01  0.13835597D-02 -0.13471438D-02 -0.72807202D-02
  0.54886216D-04 -0.57018200D-03  0.84919389D-04  0.13062293D-03 -0.12889211D-03
 -0.14718910D-03 -0.61637410D-03 -0.15260310D-03 -0.10756907D-03  0.22450531D-03
  0.53927942D-03 -0.21010271D-03 -0.35145212D-01 -0.63385837D-01 -0.93462380D-01
 -0.64261605D-01 -0.75248745D-02  0.11644130D-03 -0.30663091D-02 -0.19880777D-01
 -0.27749361D-01 -0.19704466D-02 -0.69985793D-02 -0.11157640D-01 -0.40723506D-03
  0.18168804D-03 -0.32543099D-03  0.70336150D-02 -0.34831614D-02 -0.35504535D-02
 -0.84586189D-03 -0.22252144D-03 -0.20991594D-01  0.44382538D-04  0.14423074D-03
 -0.18861328D-03 -0.23553017D-03 -0.12056006D-03 -0.69253626D-03  0.40083868D-01
  0.72292907D-01  0.10659585D+00  0.76935222D-01  0.90386996D-02 -0.87975592D-04
 -0.57090955D-02 -0.27481088D-01  0.28369257D-01 -0.30528818D-02 -0.10039009D-01
  0.10804954D-01 -0.44589197D-03  0.22049488D-03  0.45491991D-04 -0.79718336D-02
  0.60432498D-02  0.19285838D-02  0.28421781D-02 -0.19924911D-02 -0.23159598D-01
  0.48585161D-04 -0.17922823D-03  0.13064307D-03  0.31621839D-03 -0.16759974D-03
 -0.29793256D-03
MO    2     MO 0.0        OCC NO =    2.0000000  ORB. ENERGY =    0.000000
 -0.44733322D-01 -0.83375556D-01 -0.14137497D+00 -0.21395599D+00 -0.26689323D+00
 -0.22903410D+00 -0.87707892D-01 -0.18680070D-03 -0.20042489D-02 -0.73880388D-02
 -0.21602192D-01 -0.26031692D-01  0.31357932D-01  0.14128104D-01  0.62164423D-01
  0.97843001D-02 -0.14989078D+00 -0.14534364D+00 -0.98047960D-01  0.68746927D-01
  0.66661394D-01  0.44969382D-01  0.16051316D+01  0.15564378D+01  0.10499637D+01
 -0.33179364D-01  0.15534191D-01  0.34763795D+00 -0.47641121D-02  0.19950090D-02
  0.42467726D-01 -0.12763020D-03  0.97634736D-05  0.85470470D-03  0.41790629D-01
  0.10071249D-03 -0.41891342D-01  0.27033753D-02  0.10815281D-01 -0.57895141D-02
  0.50484001D-02  0.71017596D-02 -0.12150160D-01 -0.71230952D-04  0.23660213D-02
 -0.13156576D-02 -0.91228078D-03  0.15518618D-02 -0.63958099D-03 -0.14382019D-03
  0.29899216D-04 -0.14900760D-03  0.13019541D-02  0.34878764D-03  0.11909230D-02
 -0.17491525D-02 -0.89103401D-03 -0.18067034D-01 -0.21567099D-02 -0.15532890D-03
  0.14494265D-01 -0.21446186D-02  0.18267440D-04 -0.40436182D-04  0.62186437D-03
  0.61199195D-04 -0.16166652D-03 -0.15960774D-04 -0.11600152D-03  0.28297507D-03
 -0.18496323D-02  0.55796997D-04 -0.29864115D-01 -0.53861162D-01 -0.79418251D-01
 -0.61580480D-01 -0.10259733D-01 -0.11847148D-03 -0.16803217D-03 -0.27163055D-01
 -0.71899617D-03 -0.14381208D-03 -0.13489217D-01 -0.15491988D-03 -0.12750399D-03
 -0.31483676D-03  0.10919994D-02  0.42116395D-02 -0.77421849D-02  0.35305454D-02
  0.61765337D-03 -0.54124296D-04 -0.87178630D-02  0.16867044D-03 -0.30290208D-03
  0.13423164D-03 -0.44796120D-04 -0.44959295D-04  0.42391091D-03 -0.24602595D-01
 -0.44371792D-01 -0.65426182D-01 -0.53003988D-01 -0.85448104D-02 -0.12556642D-03
 -0.21452524D-02  0.26303633D-01  0.43087847D-02 -0.11190084D-02  0.12584247D-01
  0.24758508D-02 -0.15425868D-03  0.19996485D-03  0.12282316D-02  0.33852389D-02
 -0.80000752D-02  0.46148363D-02  0.10500121D-02 -0.66474787D-03  0.52561862D-02
  0.51021029D-04 -0.24196401D-03  0.19094298D-03  0.11637399D-03 -0.23036512D-04
 -0.81479620D-03
MO    3     MO 0.0        OCC NO =    2.0000000  ORB. ENERGY =    0.000000
  0.24245257D-01  0.45189173D-01  0.76624593D-01  0.11596317D+00  0.14465492D+00
  0.12413544D+00  0.47537279D-01 -0.36398206D-04 -0.39052887D-03 -0.14395629D-02
 -0.42091976D-02 -0.50722878D-02  0.61101081D-02  0.67321006D-02  0.29534794D-02
  0.37917542D-03  0.17343471D+01  0.16817333D+01  0.11344873D+01  0.35182078D+00
  0.34114782D+00  0.23013630D+00  0.13302687D+00  0.12899131D+00  0.87016778D-01
  0.39170058D+00  0.73035937D-01  0.29845507D-01  0.64153686D-01  0.72917344D-02
  0.46192947D-02  0.20436759D-02  0.11034948D-03  0.12440486D-03  0.36316821D-02
  0.16147312D-02 -0.52464133D-02  0.55473342D-02 -0.70628991D-01 -0.29601468D-01
  0.93735583D-03  0.29734618D-03 -0.12347020D-02  0.29216200D-03 -0.17785192D-01
 -0.37603868D-02  0.58926044D-04  0.76602870D-05 -0.66586331D-04 -0.98561220D-04
 -0.11454711D-02  0.27033369D-03 -0.10324235D-01  0.21726707D-02  0.44270581D-03
  0.22589857D-01 -0.53059882D-02 -0.26542220D-02  0.83828465D-02 -0.12120238D-02
  0.13261046D-02 -0.78918952D-04 -0.27478929D-03  0.35163262D-04  0.97425637D-05
  0.33201945D-03 -0.20016952D-03 -0.14765852D-03  0.49234842D-03  0.94679729D-04
  0.11843083D-03  0.40304304D-03 -0.81645089D-02 -0.14725028D-01 -0.21712045D-01
 -0.15814848D-01 -0.21210401D-02  0.15875221D-04  0.24486605D-01 -0.41573660D-02
 -0.41675499D-02  0.13307066D-01 -0.16688251D-02 -0.16197332D-02  0.20351997D-02
  0.74509026D-04  0.78586551D-04  0.84128043D-03 -0.72767438D-03 -0.11360605D-03
  0.12262923D-01  0.91815023D-02 -0.38355069D-02 -0.57833689D-04  0.51639507D-04
  0.61941822D-05  0.12716982D-02  0.79600157D-03 -0.41517609D-04  0.74424339D-02
  0.13422736D-01  0.19791816D-01  0.13323129D-01  0.13189659D-02 -0.26736744D-04
  0.25795395D-01 -0.39303163D-02  0.75855976D-02  0.14043930D-01 -0.93299627D-03
  0.30040890D-02  0.21319184D-02  0.13986454D-03  0.16377845D-03 -0.14309540D-02
  0.37487391D-03  0.10560800D-02 -0.13070800D-01  0.89184808D-02 -0.47795618D-02
  0.24412209D-04 -0.99639469D-04  0.75227260D-04 -0.14024791D-02  0.83169130D-03
 -0.12896591D-03
MO    4     MO 0.0        OCC NO =    2.0000000  ORB. ENERGY =    0.000000
  0.50496643D+00  0.94117439D+00  0.15958934D+01  0.24152150D+01  0.30127904D+01
  0.25854224D+01  0.99007942D+00  0.25805854D-03  0.27687988D-02  0.10206314D-01
  0.29842662D-01  0.35961859D-01 -0.43319870D-01  0.32807931D-01 -0.52361404D-02
  0.13453901D-03 -0.98305952D-01 -0.95323705D-01 -0.64304808D-01 -0.10865154D-01
 -0.10535544D-01 -0.71072159D-02  0.86982976D-01  0.84344228D-01  0.56898118D-01
 -0.22228904D-01 -0.11779553D-02  0.19601364D-01 -0.35697965D-02  0.20532427D-03
  0.15348054D-02 -0.11242712D-03  0.64079687D-05  0.25899138D-04  0.25438723D-02
 -0.33604382D-03 -0.22078285D-02 -0.41588049D-04  0.43399228D-02  0.22944955D-04
  0.99231577D-03 -0.31258175D-03 -0.67973402D-03  0.99619485D-04  0.11445672D-02
 -0.49667635D-03 -0.48824015D-04  0.79837888D-04 -0.31013873D-04  0.11959569D-05
  0.63618426D-04 -0.98668989D-04  0.59624415D-03 -0.61812209D-05  0.40550803D-03
 -0.12306496D-02 -0.28627750D-03 -0.29052902D-03 -0.55808288D-03  0.30482117D-03
 -0.92599507D-03 -0.42768408D-04  0.27836754D-04 -0.20485617D-04 -0.74179596D-04
 -0.39427983D-04 -0.85377120D-07 -0.27232631D-03 -0.44082280D-04  0.61542228D-04
  0.49486510D-03 -0.77966150D-04 -0.40722208D-02 -0.73444180D-02 -0.10829340D-01
 -0.55847473D-02 -0.28677886D-03  0.67792469D-05 -0.10551552D-02 -0.46810217D-02
 -0.23799770D-02 -0.63549602D-03 -0.14945346D-02 -0.69616342D-03 -0.11229144D-03
  0.70525113D-05  0.36630810D-04  0.14921145D-02 -0.14973923D-02  0.52778518D-05
 -0.28211899D-03 -0.22639516D-03 -0.40108275D-02  0.10904993D-04 -0.14785459D-05
 -0.94264469D-05 -0.68726188D-04 -0.41797353D-04  0.96389737D-05 -0.45540078D-02
 -0.82133406D-02 -0.12110566D-01 -0.75080402D-02 -0.66673534D-03 -0.38953431D-05
 -0.14581593D-02  0.60618606D-02 -0.31125118D-02 -0.78513208D-03  0.22324628D-02
 -0.11268564D-02 -0.11760842D-03  0.42088419D-04  0.66393185D-05  0.19828660D-02
 -0.21813279D-02  0.19846191D-03  0.73630839D-03 -0.49322250D-03  0.53077005D-02
  0.98545912D-05 -0.11916098D-04  0.20615073D-05  0.77672345D-04 -0.44551982D-04
  0.72251485D-05
MO    5     MO 0.0        OCC NO =    2.0000000  ORB. ENERGY =    0.000000
 -0.40905308D-01 -0.76240767D-01 -0.12927694D+00 -0.19564689D+00 -0.24405408D+00
 -0.20943471D+00 -0.80202367D-01 -0.17054751D-02 -0.18298629D-01 -0.67452191D-01
 -0.19722625D+00 -0.23766722D+00  0.28629535D+00  0.17117290D+00  0.85316786D-01
  0.60483157D-02 -0.59882245D-01 -0.58065635D-01 -0.39170734D-01  0.16556582D-01
  0.16054316D-01  0.10830147D-01  0.12328186D+00  0.11954193D+00  0.80642280D-01
 -0.13278056D-01  0.17542202D-02  0.23863781D-01 -0.23183821D-02 -0.53984671D-03
  0.78144710D-02 -0.69377327D-04 -0.10341546D-04  0.14721954D-03 -0.19307136D-01
  0.23774763D-01 -0.44676278D-02 -0.27468545D-02  0.94814970D-03 -0.17658317D-02
 -0.48468219D-02  0.52047044D-02 -0.35788254D-03 -0.68684898D-03  0.11615433D-03
  0.12095563D-02  0.13145379D-04 -0.85878880D-05 -0.45574906D-05 -0.37920781D-05
  0.31309004D-04  0.17828876D-03  0.12506864D-03  0.24155517D-03  0.23070783D-02
 -0.22065188D-03  0.13141379D-03  0.43739936D-02 -0.15455402D-03 -0.85607930D-03
 -0.11295228D-01  0.10583238D-02  0.47976844D-05 -0.52212234D-05 -0.33843680D-03
 -0.47349991D-04  0.14119348D-03 -0.82585520D-05  0.32956938D-04 -0.12552981D-03
  0.10235689D-02 -0.54650527D-04  0.16834013D-01  0.30360836D-01  0.44767035D-01
  0.83412510D-02 -0.40574780D-02 -0.10071488D-03 -0.20484582D-02  0.17494235D-01
  0.16973319D-01 -0.52012466D-03 -0.21926720D-03  0.27250710D-02 -0.47827304D-04
 -0.49202228D-03  0.99395369D-05 -0.16459183D-02  0.29740089D-03  0.13485174D-02
 -0.76870584D-03 -0.73924925D-03  0.62121618D-02  0.11923098D-03 -0.18920316D-03
  0.69972179D-04 -0.13670597D-04 -0.15735912D-04 -0.14088107D-03  0.19066169D-01
  0.34386621D-01  0.50703053D-01  0.11468435D-01 -0.38151637D-02 -0.10102872D-03
 -0.96824795D-03 -0.21119853D-01  0.18570779D-01 -0.55834934D-03 -0.52471487D-03
  0.31266798D-02 -0.82299672D-04  0.47328603D-03  0.35323953D-04 -0.23185764D-02
  0.12613442D-02  0.10572322D-02  0.54994621D-03 -0.31938507D-03 -0.82597756D-02
  0.14169140D-03 -0.19123238D-03  0.49540980D-04  0.56318920D-04 -0.22993645D-04
  0.18000462D-03
END DATA
 TOTAL ENERGY =    -76.465228348230 THE VIRIAL(-V/T)=   2.00526270
