 83
GAUSSIAN              5 MOL ORBITALS    126 PRIMITIVES        3 NUCLEI   B3LYP
  O    1    (CENTRE  1)   0.00000000  0.00000000  0.00815606  CHARGE =  8.0
  H    2    (CENTRE  2)  -0.09448631 -1.44255835 -1.09730160  CHARGE =  1.0
  H    3    (CENTRE  3)   0.00000000  1.44255835 -1.00281530  CHARGE =  1.0
CENTRE ASSIGNMENTS    1  1  1  1  1  1  1  1  1  1  1  1  1  1  1  1  1  1  1  1
CENTRE ASSIGNMENTS    1  1  1  1  1  1  1  1  1  1  1  1  1  1  1  1  1  1  1  1
CENTRE ASSIGNMENTS    1  1  1  1  1  1  1  1  1  1  1  1  1  1  1  1  1  1  1  1
CENTRE ASSIGNMENTS    1  1  1  1  1  1  1  1  1  1  1  1  2  2  2  2  2  2  2  2
CENTRE ASSIGNMENTS    2  2  2  2  2  2  2  2  2  2  2  2  2  2  2  2  2  2  2  3
CENTRE ASSIGNMENTS    3  3  3  3  3  3  3  3  3  3  3  3  3  3  3  3  3  3  3  3
CENTRE ASSIGNMENTS    3  3  3  3  3  3
TYPE ASSIGNMENTS      1  1  1  1  1  1  1  1  1  1  1  1  1  1  1  1  2  2  2  3
TYPE ASSIGNMENTS      3  3  4  4  4  2  3  4  2  3  4  2  3  4  5  6  7  8  9 10
TYPE ASSIGNMENTS      5  6  7  8  9 10  5  6  7  8  9 10 11 12 13 17 14 15 18 19
TYPE ASSIGNMENTS     16 20 11 12 13 17 14 15 18 19 16 20  1  1  1  1  1  1  2  3
TYPE ASSIGNMENTS      4  2  3  4  2  3  4  5  6  7  8  9 10  5  6  7  8  9 10  1
TYPE ASSIGNMENTS      1  1  1  1  1  2  3  4  2  3  4  2  3  4  5  6  7  8  9 10
TYPE ASSIGNMENTS      5  6  7  8  9 10
EXPONENTS  0.1533000D+05 0.2299000D+04 0.5224000D+03 0.1473000D+03 0.4755000D+02
EXPONENTS  0.1676000D+02 0.6207000D+01 0.5224000D+03 0.1473000D+03 0.4755000D+02
EXPONENTS  0.1676000D+02 0.6207000D+01 0.6882000D+00 0.1752000D+01 0.2384000D+00
EXPONENTS  0.7376000D-01 0.3446000D+02 0.7749000D+01 0.2280000D+01 0.3446000D+02
EXPONENTS  0.7749000D+01 0.2280000D+01 0.3446000D+02 0.7749000D+01 0.2280000D+01
EXPONENTS  0.7156000D+00 0.7156000D+00 0.7156000D+00 0.2140000D+00 0.2140000D+00
EXPONENTS  0.2140000D+00 0.5974000D-01 0.5974000D-01 0.5974000D-01 0.2314000D+01
EXPONENTS  0.2314000D+01 0.2314000D+01 0.2314000D+01 0.2314000D+01 0.2314000D+01
EXPONENTS  0.6450000D+00 0.6450000D+00 0.6450000D+00 0.6450000D+00 0.6450000D+00
EXPONENTS  0.6450000D+00 0.2140000D+00 0.2140000D+00 0.2140000D+00 0.2140000D+00
EXPONENTS  0.2140000D+00 0.2140000D+00 0.1428000D+01 0.1428000D+01 0.1428000D+01
EXPONENTS  0.1428000D+01 0.1428000D+01 0.1428000D+01 0.1428000D+01 0.1428000D+01
EXPONENTS  0.1428000D+01 0.1428000D+01 0.5000000D+00 0.5000000D+00 0.5000000D+00
EXPONENTS  0.5000000D+00 0.5000000D+00 0.5000000D+00 0.5000000D+00 0.5000000D+00
EXPONENTS  0.5000000D+00 0.5000000D+00 0.3387000D+02 0.5095000D+01 0.1159000D+01
EXPONENTS  0.3258000D+00 0.1027000D+00 0.2526000D-01 0.1407000D+01 0.1407000D+01
EXPONENTS  0.1407000D+01 0.3880000D+00 0.3880000D+00 0.3880000D+00 0.1020000D+00
EXPONENTS  0.1020000D+00 0.1020000D+00 0.1057000D+01 0.1057000D+01 0.1057000D+01
EXPONENTS  0.1057000D+01 0.1057000D+01 0.1057000D+01 0.2470000D+00 0.2470000D+00
EXPONENTS  0.2470000D+00 0.2470000D+00 0.2470000D+00 0.2470000D+00 0.3387000D+02
EXPONENTS  0.5095000D+01 0.1159000D+01 0.3258000D+00 0.1027000D+00 0.2526000D-01
EXPONENTS  0.1407000D+01 0.1407000D+01 0.1407000D+01 0.3880000D+00 0.3880000D+00
EXPONENTS  0.3880000D+00 0.1020000D+00 0.1020000D+00 0.1020000D+00 0.1057000D+01
EXPONENTS  0.1057000D+01 0.1057000D+01 0.1057000D+01 0.1057000D+01 0.1057000D+01
EXPONENTS  0.2470000D+00 0.2470000D+00 0.2470000D+00 0.2470000D+00 0.2470000D+00
EXPONENTS  0.2470000D+00
MO    1     MO 0.0        OCC NO =    2.0000000  ORB. ENERGY =    0.000000
 -0.49497227D-01 -0.92254693D-01 -0.15643080D+00 -0.23674138D+00 -0.29531621D+00
 -0.25342524D+00 -0.97048404D-01 -0.84599304D-04 -0.90769502D-03 -0.33459348D-02
 -0.97833169D-02 -0.11789373D-01  0.14201549D-01  0.28038415D-02  0.55967766D-01
  0.91164899D-02  0.45942250D-02  0.44548528D-02  0.30052174D-02 -0.45805016D+00
 -0.44415457D+00 -0.29962405D+00  0.15287792D+01  0.14824016D+01  0.10000194D+01
  0.75375461D-03 -0.91871529D-01  0.33067227D+00 -0.26452199D-03 -0.72280434D-02
  0.39889089D-01 -0.23802072D-04 -0.66962193D-04  0.80883470D-03  0.41716050D-01
 -0.28202202D-02 -0.38895830D-01 -0.98347892D-03 -0.38209529D-02  0.43196321D-01
  0.50239871D-02  0.65450655D-02 -0.11569053D-01  0.28309063D-03 -0.83966801D-03
  0.42973352D-02 -0.92763351D-03  0.15498595D-02 -0.62222601D-03  0.12563389D-03
  0.37325388D-04 -0.71821948D-03 -0.36458218D-03 -0.21920848D-02  0.11171733D-02
 -0.47208970D-03  0.40240124D-02 -0.17554754D-01  0.15658362D-02  0.25522421D-02
  0.14203234D-01  0.18551135D-02  0.12342471D-04 -0.84425382D-04  0.64838717D-03
 -0.11130996D-03  0.65312486D-04  0.47692216D-04  0.74282552D-04  0.18796366D-03
 -0.19928537D-02 -0.12973099D-03 -0.15990066D-01 -0.28838743D-01 -0.42522709D-01
 -0.34276638D-01 -0.65221164D-02 -0.14594201D-03 -0.90479684D-03 -0.19071237D-01
  0.83473337D-02 -0.51529481D-03 -0.99463487D-02  0.37447422D-02 -0.17289050D-04
 -0.32688563D-03  0.11308712D-02  0.14391163D-02 -0.59188411D-02  0.44797248D-02
 -0.83387003D-03 -0.64614265D-05 -0.79789545D-03  0.13314880D-03 -0.32176307D-03
  0.18861427D-03 -0.35272000D-04  0.29313854D-05  0.65423182D-03 -0.38607524D-01
 -0.69630259D-01 -0.10266978D+00 -0.77842834D-01 -0.10962785D-01 -0.77924452D-04
  0.50019055D-04  0.35700366D-01 -0.74884008D-02 -0.94384620D-07  0.15330284D-01
 -0.18189507D-02 -0.79785149D-05  0.72917485D-04  0.11214183D-02  0.61577798D-02
 -0.96668927D-02  0.35091130D-02 -0.54469668D-05 -0.59752776D-04  0.13747894D-01
  0.20120525D-04 -0.14638053D-03  0.12626000D-03 -0.15989389D-06 -0.34713757D-04
 -0.66041548D-03
MO    2     MO 0.0        OCC NO =    2.0000000  ORB. ENERGY =    0.000000
  0.33231472D-02  0.61937999D-02  0.10502458D-01  0.15894354D-01  0.19826953D-01
  0.17014476D-01  0.65156403D-02  0.10675928D-03  0.11454570D-02  0.42223703D-02
  0.12345963D-01  0.14877486D-01 -0.17921508D-01 -0.10041089D-01  0.66680351D-02
  0.20074439D-02  0.29046175D+00  0.28165019D+00  0.18999955D+00  0.13767257D+01
  0.13349609D+01  0.90055670D+00  0.45523250D+00  0.44142239D+00  0.29778094D+00
  0.64541929D-01  0.28139547D+00  0.10041180D+00  0.96965433D-02  0.24493293D-01
  0.12457834D-01  0.28328186D-03  0.20646514D-03  0.23947857D-03  0.12362678D-01
  0.18823232D-02 -0.14245002D-01 -0.58392692D-02 -0.15773303D-01 -0.12766980D+00
  0.21470315D-02  0.14567106D-02 -0.36037421D-02 -0.70826349D-03 -0.33349978D-02
 -0.15091213D-01 -0.12111982D-03  0.28054208D-03 -0.15942227D-03  0.76389932D-04
 -0.10798313D-03  0.14057627D-02 -0.20425772D-02  0.66285075D-02 -0.14076019D-03
  0.47251471D-02 -0.13055444D-01 -0.56965715D-02  0.14025845D-02 -0.68300786D-02
  0.61188521D-02  0.13789985D-02 -0.65327648D-04  0.10914265D-03  0.12579095D-03
  0.87691522D-04 -0.65466241D-03 -0.16521593D-03  0.10829142D-03  0.32723446D-03
 -0.21215690D-03  0.14325826D-03 -0.45214089D-01 -0.81545472D-01 -0.12023875D+00
 -0.83566697D-01 -0.10523385D-01  0.74274089D-04  0.96764714D-03 -0.29853711D-01
 -0.27597297D-01  0.87111596D-03 -0.11465876D-01 -0.10742281D-01  0.27187824D-03
  0.97095460D-04  0.94700713D-04  0.82535429D-02 -0.61168490D-02 -0.21366939D-02
 -0.39459055D-03 -0.50317992D-03 -0.23434806D-01  0.88918658D-04  0.42898915D-04
 -0.13181757D-03  0.14097617D-03  0.68816948D-04 -0.48358982D-03  0.27444918D-01
  0.49498040D-01  0.72984830D-01  0.52378592D-01  0.56838958D-02 -0.12134542D-03
  0.41180809D-02 -0.14694257D-01  0.27001218D-01  0.21706899D-02 -0.47832586D-02
  0.10876386D-01  0.30779133D-03  0.25358262D-03  0.49120022D-03 -0.60697304D-02
  0.26224485D-02  0.34472819D-02 -0.20220857D-02  0.14143555D-02 -0.19220032D-01
  0.55214598D-04 -0.24677519D-03  0.19156059D-03 -0.22889277D-03  0.10152103D-03
 -0.59007701D-03
MO    3     MO 0.0        OCC NO =    2.0000000  ORB. ENERGY =    0.000000
 -0.12665348D+00 -0.23606127D+00 -0.40027505D+00 -0.60577373D+00 -0.75565498D+00
 -0.64846440D+00 -0.24832741D+00  0.31458079D-04  0.33752454D-03  0.12441790D-02
  0.36379064D-02  0.43838541D-02 -0.52808169D-02 -0.18227592D-01 -0.40740648D-02
 -0.51400518D-03  0.17020308D+01  0.16503973D+01  0.11133483D+01 -0.23095765D+00
 -0.22395124D+00 -0.15107618D+00 -0.13772037D+00 -0.13354243D+00 -0.90086933D-01
  0.38432471D+00 -0.48513515D-01 -0.30788435D-01  0.62895121D-01 -0.51979594D-02
 -0.46305110D-02  0.20021993D-02 -0.92526167D-04 -0.12371498D-03 -0.32693121D-02
 -0.18864124D-02  0.51557245D-02  0.49338251D-02 -0.69530912D-01  0.18650166D-01
 -0.91693830D-03 -0.32775651D-03  0.12446948D-02  0.23278162D-03 -0.17453510D-01
  0.25426547D-02 -0.44377254D-04 -0.23896557D-04  0.68273811D-04 -0.92409803D-04
 -0.11187008D-02 -0.13071588D-03 -0.10154409D-01 -0.15952374D-02 -0.59884063D-03
  0.22272255D-01  0.42010696D-02  0.23683089D-02  0.81909725D-02  0.58464257D-03
 -0.57178704D-03  0.18721757D-04 -0.26890300D-03 -0.20548797D-04  0.14390196D-04
  0.32475117D-03  0.14180359D-03  0.18818005D-03  0.48195783D-03 -0.80157200D-04
 -0.23135064D-03  0.39079787D-03  0.52043828D-02  0.93863187D-02  0.13840121D-01
  0.10525767D-01  0.15163676D-02 -0.68745876D-05  0.23843627D-01  0.26090244D-02
  0.19451680D-02  0.12985538D-01  0.12087136D-02  0.79083849D-03  0.19934472D-02
 -0.51023402D-04 -0.93410930D-04 -0.48130798D-03  0.62938957D-03 -0.14808158D-03
  0.11935683D-01  0.89049120D-02  0.26573493D-02  0.56674954D-04 -0.38142446D-04
 -0.18532508D-04  0.12444034D-02  0.77715848D-03 -0.43112036D-05 -0.41523143D-02
 -0.74888699D-02 -0.11042334D-01 -0.66651928D-02 -0.47615432D-03  0.21149944D-04
  0.25298461D-01  0.14636672D-02 -0.50482742D-02  0.13769356D-01 -0.11742856D-03
 -0.19241806D-02  0.20890608D-02 -0.13852273D-03 -0.14071557D-03  0.49373218D-03
  0.39189421D-03 -0.88562640D-03 -0.12813447D-01  0.87496455D-02  0.21102529D-02
 -0.25340570D-04  0.87748898D-04 -0.62408328D-04 -0.13761287D-02  0.81447355D-03
  0.84611067D-04
MO    4     MO 0.0        OCC NO =    2.0000000  ORB. ENERGY =    0.000000
  0.47853755D+00  0.89191532D+00  0.15123678D+01  0.22888078D+01  0.28551073D+01
  0.24501068D+01  0.93826075D+00  0.40687066D-04  0.43654552D-03  0.16091890D-02
  0.47051742D-02  0.56699637D-02 -0.68300721D-02  0.52098192D-01  0.64966757D-02
  0.10467191D-02  0.46250571D+00  0.44847496D+00  0.30253856D+00 -0.96847279D-01
 -0.93909283D-01 -0.63350647D-01  0.11110314D+00  0.10773267D+00  0.72675823D-01
  0.10444644D+00 -0.19176434D-01  0.24214909D-01  0.17047796D-01 -0.16316466D-02
  0.25251499D-02  0.54091718D-03 -0.20253379D-04  0.38368618D-04  0.34108775D-03
  0.22550634D-02 -0.25961511D-02  0.15269601D-02 -0.19058964D-01  0.73872693D-02
  0.28366609D-03  0.45778690D-03 -0.74145299D-03  0.59640352D-04 -0.48323805D-02
  0.60041233D-03 -0.81877088D-04  0.11457103D-03 -0.32693939D-04 -0.18058098D-04
 -0.30231133D-03 -0.15162152D-03 -0.27428155D-02 -0.50021168D-03  0.62168583D-03
  0.58891771D-02  0.97762095D-03  0.37593622D-03  0.23392694D-02  0.52301408D-03
 -0.22409937D-02 -0.63149205D-04 -0.84198391D-04 -0.30310336D-04 -0.10002155D-03
  0.11005302D-03  0.62578470D-04 -0.23299602D-03  0.14254215D-03  0.28352537D-04
  0.53306068D-03  0.16250236D-03 -0.44243451D-03 -0.79794885D-03 -0.11765751D-02
 -0.17746453D-02 -0.49338181D-03 -0.13395673D-04  0.63409022D-02 -0.19002500D-02
  0.97937508D-03  0.34299907D-02 -0.13629137D-02  0.12811345D-03  0.53650880D-03
 -0.79375225D-04  0.49766141D-04  0.10832826D-02 -0.14040249D-02  0.32074224D-03
  0.28963385D-02  0.22205237D-02 -0.22765786D-02  0.40868363D-04 -0.44494636D-04
  0.36262733D-05  0.33123148D-03  0.20774966D-03  0.18491748D-04 -0.46381600D-02
 -0.83651126D-02 -0.12334354D-01 -0.10768236D-01 -0.17015534D-02 -0.12690351D-04
  0.68849065D-02  0.50062547D-02 -0.25180701D-02  0.37432964D-02  0.27059395D-02
 -0.13976340D-02  0.56625045D-03  0.72696487D-04  0.49502229D-05  0.21049030D-02
 -0.22945066D-02  0.18960363D-03 -0.34932858D-02  0.23658604D-02  0.55087145D-02
  0.22731124D-04 -0.18176444D-04 -0.45546797D-05 -0.37315263D-03  0.21768560D-03
  0.40673537D-04
MO    5     MO 0.0        OCC NO =    2.0000000  ORB. ENERGY =    0.000000
 -0.10841259D+00 -0.20206325D+00 -0.34262663D+00 -0.51852897D+00 -0.64682402D+00
 -0.55507124D+00 -0.21256280D+00 -0.17299610D-02 -0.18561347D-01 -0.68420619D-01
 -0.20005788D+00 -0.24107947D+00  0.29040577D+00  0.16579121D+00  0.89714443D-01
  0.67343967D-02  0.72137266D-01  0.69948883D-01  0.47187103D-01  0.92245487D-01
  0.89447093D-01  0.60340480D-01  0.24193321D+00  0.23459383D+00  0.15825561D+00
  0.15945650D-01  0.17204760D-01  0.49581340D-01  0.26736074D-02  0.81467675D-03
  0.11030649D-01  0.77977468D-04  0.35601207D-07  0.21210157D-03 -0.16018482D-01
  0.23698574D-01 -0.76800920D-02  0.22395198D-02 -0.19349263D-02 -0.86175624D-02
 -0.44813461D-02  0.57479140D-02 -0.12665679D-02  0.66219725D-03 -0.30272510D-03
  0.40841820D-03 -0.48201366D-04  0.99799754D-04 -0.51598388D-04  0.17425655D-04
 -0.30741794D-04  0.25064615D-03 -0.24222585D-03  0.59954578D-03  0.23061316D-02
  0.42608806D-03 -0.55423405D-03  0.28675003D-02  0.30058948D-03 -0.12444033D-02
 -0.97858950D-02 -0.83975097D-03 -0.58162128D-05  0.27976801D-06 -0.27753341D-03
  0.42293902D-04  0.95831181D-04  0.17480942D-04 -0.24845263D-04 -0.96670485D-04
  0.81511927D-03  0.47775394D-04  0.12899615D-01  0.23264986D-01  0.34304209D-01
  0.60240046D-03 -0.52064964D-02 -0.10484808D-03  0.19629598D-02  0.14592691D-01
  0.15672865D-01  0.49225749D-03 -0.15136388D-02  0.22337430D-02  0.56054485D-04
 -0.50461315D-03  0.83332361D-04 -0.11205656D-02 -0.34357416D-03  0.14641397D-02
  0.66814898D-03  0.68465967D-03  0.48954934D-02  0.13259640D-03 -0.20545664D-03
  0.72860236D-04  0.15334076D-04  0.17018191D-04 -0.13686532D-03  0.19212836D-01
  0.34651142D-01  0.51093088D-01  0.11421438D-01 -0.39799768D-02 -0.11418478D-03
  0.11343887D-02 -0.20680686D-01  0.20457652D-01  0.64272237D-03 -0.20396416D-03
  0.39607008D-02  0.93180330D-04  0.48973738D-03  0.14161764D-03 -0.26326583D-02
  0.11257836D-02  0.15068747D-02 -0.62813845D-03  0.37272343D-03 -0.94879366D-02
  0.14533014D-03 -0.21668797D-03  0.71357832D-04 -0.65760832D-04  0.24054404D-04
  0.92681606D-04
END DATA
 TOTAL ENERGY =    -76.465228348231 THE VIRIAL(-V/T)=   2.00526270
