 83
GAUSSIAN              5 MOL ORBITALS    126 PRIMITIVES        3 NUCLEI   B3LYP
  O    1    (CENTRE  1)   0.00000000  0.00000000  0.00815606  CHARGE =  8.0
  H    2    (CENTRE  2)   0.09448631 -1.44255835 -1.09730160  CHARGE =  1.0
  H    3    (CENTRE  3)   0.00000000  1.44255835 -1.19178791  CHARGE =  1.0
CENTRE ASSIGNMENTS    1  1  1  1  1  1  1  1  1  1  1  1  1  1  1  1  1  1  1  1
CENTRE ASSIGNMENTS    1  1  1  1  1  1  1  1  1  1  1  1  1  1  1  1  1  1  1  1
CENTRE ASSIGNMENTS    1  1  1  1  1  1  1  1  1  1  1  1  1  1  1  1  1  1  1  1
CENTRE ASSIGNMENTS    1  1  1  1  1  1  1  1  1  1  1  1  2  2  2  2  2  2  2  2
CENTRE ASSIGNMENTS    2  2  2  2  2  2  2  2  2  2  2  2  2  2  2  2  2  2  2  3
CENTRE ASSIGNMENTS    3  3  3  3  3  3  3  3  3  3  3  3  3  3  3  3  3  3  3  3
CENTRE ASSIGNMENTS    3  3  3  3  3  3
TYPE ASSIGNMENTS      1  1  1  1  1  1  1  1  1  1  1  1  1  1  1  1  2  2  2  3
TYPE ASSIGNMENTS      3  3  4  4  4  2  3  4  2  3  4  2  3  4  5  6  7  8  9 10
TYPE ASSIGNMENTS      5  6  7  8  9 10  5  6  7  8  9 10 11 12 13 17 14 15 18 19
TYPE ASSIGNMENTS     16 20 11 12 13 17 14 15 18 19 16 20  1  1  1  1  1  1  2  3
TYPE ASSIGNMENTS      4  2  3  4  2  3  4  5  6  7  8  9 10  5  6  7  8  9 10  1
TYPE ASSIGNMENTS      1  1  1  1  1  2  3  4  2  3  4  2  3  4  5  6  7  8  9 10
TYPE ASSIGNMENTS      5  6  7  8  9 10
EXPONENTS  0.1533000D+05 0.2299000D+04 0.5224000D+03 0.1473000D+03 0.4755000D+02
EXPONENTS  0.1676000D+02 0.6207000D+01 0.5224000D+03 0.1473000D+03 0.4755000D+02
EXPONENTS  0.1676000D+02 0.6207000D+01 0.6882000D+00 0.1752000D+01 0.2384000D+00
EXPONENTS  0.7376000D-01 0.3446000D+02 0.7749000D+01 0.2280000D+01 0.3446000D+02
EXPONENTS  0.7749000D+01 0.2280000D+01 0.3446000D+02 0.7749000D+01 0.2280000D+01
EXPONENTS  0.7156000D+00 0.7156000D+00 0.7156000D+00 0.2140000D+00 0.2140000D+00
EXPONENTS  0.2140000D+00 0.5974000D-01 0.5974000D-01 0.5974000D-01 0.2314000D+01
EXPONENTS  0.2314000D+01 0.2314000D+01 0.2314000D+01 0.2314000D+01 0.2314000D+01
EXPONENTS  0.6450000D+00 0.6450000D+00 0.6450000D+00 0.6450000D+00 0.6450000D+00
EXPONENTS  0.6450000D+00 0.2140000D+00 0.2140000D+00 0.2140000D+00 0.2140000D+00
EXPONENTS  0.2140000D+00 0.2140000D+00 0.1428000D+01 0.1428000D+01 0.1428000D+01
EXPONENTS  0.1428000D+01 0.1428000D+01 0.1428000D+01 0.1428000D+01 0.1428000D+01
EXPONENTS  0.1428000D+01 0.1428000D+01 0.5000000D+00 0.5000000D+00 0.5000000D+00
EXPONENTS  0.5000000D+00 0.5000000D+00 0.5000000D+00 0.5000000D+00 0.5000000D+00
EXPONENTS  0.5000000D+00 0.5000000D+00 0.3387000D+02 0.5095000D+01 0.1159000D+01
EXPONENTS  0.3258000D+00 0.1027000D+00 0.2526000D-01 0.1407000D+01 0.1407000D+01
EXPONENTS  0.1407000D+01 0.3880000D+00 0.3880000D+00 0.3880000D+00 0.1020000D+00
EXPONENTS  0.1020000D+00 0.1020000D+00 0.1057000D+01 0.1057000D+01 0.1057000D+01
EXPONENTS  0.1057000D+01 0.1057000D+01 0.1057000D+01 0.2470000D+00 0.2470000D+00
EXPONENTS  0.2470000D+00 0.2470000D+00 0.2470000D+00 0.2470000D+00 0.3387000D+02
EXPONENTS  0.5095000D+01 0.1159000D+01 0.3258000D+00 0.1027000D+00 0.2526000D-01
EXPONENTS  0.1407000D+01 0.1407000D+01 0.1407000D+01 0.3880000D+00 0.3880000D+00
EXPONENTS  0.3880000D+00 0.1020000D+00 0.1020000D+00 0.1020000D+00 0.1057000D+01
EXPONENTS  0.1057000D+01 0.1057000D+01 0.1057000D+01 0.1057000D+01 0.1057000D+01
EXPONENTS  0.2470000D+00 0.2470000D+00 0.2470000D+00 0.2470000D+00 0.2470000D+00
EXPONENTS  0.2470000D+00
MO    1     MO 0.0        OCC NO =    2.0000000  ORB. ENERGY =    0.000000
  0.64910852D-01  0.12098316D+00  0.20514394D+00  0.31046354D+00  0.38727880D+00
  0.33234283D+00  0.12726965D+00  0.22794406D-03  0.24456902D-02  0.90152746D-02
  0.26360134D-01  0.31765243D-01 -0.38264602D-01 -0.16276058D-01  0.11484136D-02
  0.11584851D-02  0.56263019D-01  0.54556203D-01  0.36803292D-01  0.14240490D+01
  0.13808485D+01  0.93151222D+00  0.25998851D+00  0.25210140D+00  0.17006611D+00
  0.13647698D-01  0.29793973D+00  0.55562422D-01  0.30733962D-02  0.29919873D-01
  0.54444185D-02  0.12368496D-03  0.32895868D-03  0.11330165D-03  0.10944914D-01
 -0.62752183D-02 -0.46696957D-02  0.64011784D-02  0.11689826D-02 -0.13356715D+00
  0.15333332D-02  0.42409599D-03 -0.19574292D-02  0.84070570D-03 -0.30436529D-03
 -0.19096696D-01 -0.24497298D-03  0.34405804D-03 -0.99085058D-04 -0.58246249D-04
 -0.11753766D-03  0.54812621D-03 -0.23744596D-04  0.63359262D-02  0.32899439D-03
 -0.40946081D-03 -0.15269178D-01 -0.34857957D-02  0.48069459D-03 -0.37386005D-02
  0.24988126D-02 -0.13515227D-02  0.20846694D-05  0.10626842D-03  0.19451717D-03
 -0.60102492D-05 -0.97879429D-03  0.28497893D-04 -0.24375893D-06  0.65998904D-03
 -0.61204941D-03 -0.11756196D-03 -0.44032880D-01 -0.79415113D-01 -0.11709754D+00
 -0.79087397D-01 -0.92147466D-02  0.11538085D-03  0.37347139D-02 -0.27099044D-01
 -0.29488689D-01  0.16537825D-02 -0.95669944D-02 -0.11146646D-01  0.12107505D-03
  0.36822167D-03  0.15202118D-04  0.78139418D-02 -0.47141021D-02 -0.30998397D-02
  0.26001438D-02  0.22736779D-02 -0.22889540D-01  0.72824516D-04  0.13507919D-03
 -0.20790370D-03  0.97068643D-04  0.89947569D-04 -0.44425684D-03  0.27825600D-01
  0.50184616D-01  0.73997188D-01  0.52066251D-01  0.68259606D-02 -0.13830683D-03
  0.89675074D-03 -0.94399590D-02  0.22446040D-01  0.53676035D-03 -0.36498137D-02
  0.98205145D-02  0.10264416D-03  0.30668293D-03  0.36250552D-03 -0.51436220D-02
  0.69654517D-03  0.44470769D-02 -0.49119986D-03  0.33119552D-03 -0.15636107D-01
 -0.11488059D-03 -0.14979034D-03  0.26467093D-03 -0.40644760D-04  0.43131415D-04
 -0.76441233D-03
MO    2     MO 0.0        OCC NO =    2.0000000  ORB. ENERGY =    0.000000
 -0.95035178D-01 -0.17712995D+00 -0.30034872D+00 -0.45454584D+00 -0.56701011D+00
 -0.48657903D+00 -0.18633392D+00 -0.67214373D-03 -0.72116612D-02 -0.26583541D-01
 -0.77728714D-01 -0.93666880D-01  0.11283168D+00  0.57302491D-01 -0.79766347D-02
 -0.52908543D-02  0.32755209D+00  0.31761535D+00  0.21426144D+00  0.32310163D+00
  0.31329989D+00  0.21135026D+00 -0.12520841D+01 -0.12141004D+01 -0.81902494D+00
  0.73753989D-01  0.69884387D-01 -0.27451559D+00  0.11764680D-01  0.80815989D-02
 -0.31770613D-01  0.36841850D-03  0.93455401D-04 -0.59742255D-03 -0.42285678D-01
  0.72905174D-02  0.34995161D-01 -0.28462648D-02 -0.17003867D-01 -0.29224091D-01
 -0.72480087D-02 -0.31782174D-02  0.10426226D-01 -0.10422903D-03 -0.43593355D-02
 -0.54829082D-02  0.52382696D-03 -0.10416632D-02  0.51783620D-03  0.12478077D-03
 -0.20928115D-03 -0.16353711D-03 -0.22808065D-02  0.14688350D-02 -0.64280028D-03
  0.36374842D-02 -0.44312173D-02  0.17257310D-01  0.32049353D-02  0.24712257D-04
 -0.15328909D-01  0.19079281D-02 -0.83045318D-04 -0.14137517D-04 -0.62668644D-03
  0.34781193D-04 -0.38919080D-03  0.51240003D-03  0.21435476D-03  0.43160335D-03
  0.13676593D-02 -0.19111312D-03  0.22860234D-01  0.41229374D-01  0.60792688D-01
  0.37058961D-01  0.44783827D-02  0.88532798D-04  0.30114690D-02  0.26397398D-01
  0.18170599D-02  0.18849740D-02  0.97368723D-02 -0.12184288D-02  0.36304105D-03
  0.16879173D-03 -0.85092970D-03 -0.30444450D-02  0.62231527D-02 -0.31787077D-02
  0.11171629D-02  0.12789958D-02  0.60690750D-02 -0.71836316D-04  0.22492951D-03
 -0.15309319D-03  0.20601215D-03  0.15170831D-03 -0.48107589D-03  0.39208277D-01
  0.70713742D-01  0.10426737D+00  0.66186313D-01  0.86813241D-02  0.32105440D-04
  0.42035557D-02 -0.31374090D-01  0.14263456D-01  0.22620069D-02 -0.12026102D-01
  0.42876211D-02  0.34934282D-03 -0.69396489D-04 -0.69890630D-03 -0.54820207D-02
  0.62054833D-02 -0.72346259D-03 -0.20446996D-02  0.15448330D-02 -0.14108797D-01
 -0.19853644D-03  0.18729955D-03  0.11236894D-04 -0.20883062D-03  0.10470187D-03
 -0.64313132D-04
MO    3     MO 0.0        OCC NO =    2.0000000  ORB. ENERGY =    0.000000
  0.12105571D+00  0.22562794D+00  0.38258388D+00  0.57900002D+00  0.72225688D+00
  0.61980386D+00  0.23735195D+00 -0.53974002D-04 -0.57910562D-03 -0.21346924D-02
 -0.62417152D-02 -0.75215704D-02  0.90605286D-02  0.20078373D-01  0.10063955D-01
  0.14702992D-02  0.17005420D+01  0.16489537D+01  0.11123745D+01 -0.10138448D+00
 -0.98308846D-01 -0.66318567D-01  0.28696739D+00  0.27826184D+00  0.18771379D+00
  0.38411159D+00 -0.20655612D-01  0.63327911D-01  0.63573644D-01 -0.13679629D-02
  0.86290509D-02  0.20558874D-02  0.30959327D-04  0.19620995D-03  0.75147525D-02
  0.14505115D-02 -0.89652640D-02 -0.39865465D-02 -0.68400149D-01  0.12559168D-01
  0.14828744D-02  0.98810333D-03 -0.24709777D-02 -0.33034622D-03 -0.18147339D-01
  0.16918185D-02 -0.23146692D-04  0.16190865D-03 -0.13876196D-03  0.56075216D-04
 -0.12707039D-02 -0.56018185D-04 -0.10037228D-01 -0.30722667D-04  0.82238126D-03
  0.20457881D-01 -0.54233873D-03 -0.42619915D-02  0.96538027D-02  0.63450673D-03
  0.17948477D-02 -0.28622018D-03 -0.44042346D-03  0.20407179D-04  0.77973573D-04
  0.69301650D-03  0.48044304D-04 -0.23229394D-03  0.62825387D-03 -0.10926584D-03
 -0.16267761D-05 -0.39091400D-03  0.81414818D-03  0.14683498D-02  0.21650809D-02
 -0.17510697D-03 -0.59061239D-03 -0.35349522D-04  0.23537336D-01 -0.23120883D-03
  0.44482072D-02  0.12844500D-01 -0.71905671D-03  0.17369428D-02  0.19792753D-02
 -0.45944116D-04  0.22423839D-03 -0.77743600D-03 -0.47889441D-03  0.12563304D-02
  0.11813577D-01  0.85684070D-02  0.14028120D-02 -0.55108039D-04 -0.24087503D-04
  0.79195542D-04  0.12198573D-02  0.74808821D-03  0.17325019D-03 -0.74596206D-02
 -0.13453733D-01 -0.19837522D-01 -0.14846587D-01 -0.24353711D-02 -0.42979710D-05
  0.21999626D-01  0.55182870D-02 -0.16137541D-02  0.11994836D-01  0.28895375D-02
 -0.73599244D-03  0.18829019D-02  0.10208197D-03  0.17364867D-03  0.13594970D-02
 -0.16383612D-02  0.27886422D-03 -0.10798271D-01  0.86225287D-02  0.34067620D-02
  0.59378963D-04 -0.74144266D-04  0.14765303D-04 -0.10938353D-02  0.71439038D-03
  0.55200094D-04
MO    4     MO 0.0        OCC NO =    2.0000000  ORB. ENERGY =    0.000000
  0.44471490D+00  0.82887546D+00  0.14054748D+01  0.21270367D+01  0.26533106D+01
  0.22769352D+01  0.87194523D+00  0.86688202D-03  0.93010752D-02  0.34285515D-01
  0.10024883D+00  0.12080472D+00 -0.14552209D+00 -0.37091510D-01 -0.62319586D-01
 -0.65522317D-02 -0.23672985D+00 -0.22954832D+00 -0.15485194D+00 -0.11890974D+00
 -0.11530245D+00 -0.77782350D-01 -0.69742556D+00 -0.67626819D+00 -0.45620653D+00
 -0.53902606D-01 -0.25385916D-01 -0.14830157D+00 -0.91537943D-02 -0.27624311D-02
 -0.20047045D-01 -0.30826133D-03 -0.43345874D-04 -0.38472142D-03 -0.11046637D-01
 -0.72614305D-02  0.18308068D-01 -0.11186415D-03  0.81326902D-02  0.11256616D-01
  0.24527434D-03 -0.52777835D-02  0.50325092D-02  0.33295621D-03  0.24351314D-02
  0.21913445D-02  0.37193977D-03 -0.62737664D-03  0.25543687D-03  0.58716827D-04
  0.21258709D-03 -0.23801695D-04  0.12833478D-02 -0.52090803D-03 -0.15634882D-02
 -0.29922433D-02  0.17282333D-02  0.65454025D-02 -0.85780014D-03 -0.16550919D-03
 -0.18549380D-02  0.69860921D-03  0.75518843D-04 -0.93523246D-05 -0.29940589D-03
 -0.14675624D-03  0.91853401D-04 -0.19248745D-03 -0.79800292D-04 -0.63796427D-04
  0.10907051D-02 -0.13808379D-04  0.61656839D-02  0.11120065D-01  0.16396529D-01
  0.23411721D-01  0.59499766D-02  0.82952917D-04 -0.35919060D-02  0.31525853D-02
 -0.61802391D-02 -0.21609558D-02  0.49677834D-02 -0.98727536D-03 -0.30241120D-03
  0.22267585D-03 -0.44895652D-03 -0.26833153D-03  0.20017926D-02 -0.17334611D-02
 -0.19969300D-02 -0.12374782D-02 -0.78822552D-03 -0.74596816D-04  0.13182958D-03
 -0.57232764D-04 -0.20258703D-03 -0.11766658D-03 -0.12831868D-03  0.16075230D-02
  0.28992339D-02  0.42749187D-02  0.14842684D-01  0.52458755D-02  0.11080530D-03
 -0.30754999D-02 -0.14225149D-02 -0.88591013D-02 -0.16709761D-02 -0.45975152D-02
 -0.17998294D-02 -0.26876943D-03 -0.38460080D-03 -0.40477190D-03  0.20034121D-03
  0.19958032D-02 -0.21961444D-02  0.15031234D-02 -0.12392674D-02  0.21158168D-02
 -0.11517625D-03  0.20333833D-03 -0.88162078D-04  0.14827273D-03 -0.11747622D-03
  0.84790527D-04
MO    5     MO 0.0        OCC NO =    2.0000000  ORB. ENERGY =    0.000000
  0.18333483D+00  0.34170598D+00  0.57941052D+00  0.87687620D+00  0.10938339D+01
  0.93867226D+00  0.35946161D+00 -0.13422281D-02 -0.14401226D-01 -0.53085632D-01
 -0.15521927D+00 -0.18704677D+00  0.22531766D+00  0.16047610D+00  0.86740355D-01
  0.78815771D-02 -0.39174928D+00 -0.37986502D+00 -0.25625470D+00  0.17577295D-01
  0.17044064D-01  0.11497825D-01  0.59108012D+00  0.57314888D+00  0.38664285D+00
 -0.88135051D-01  0.34474003D-02  0.12528712D+00 -0.14474910D-01  0.21939358D-03
  0.18321984D-01 -0.45661126D-03 -0.91358075D-05  0.33006745D-03 -0.17056296D-02
  0.16462020D-01 -0.14756390D-01 -0.32775103D-03  0.16017241D-01 -0.18444613D-02
 -0.23650119D-02  0.61649698D-02 -0.37999579D-02 -0.48734575D-03  0.40971390D-02
 -0.76556339D-03 -0.30456341D-03  0.49531591D-03 -0.19075250D-03 -0.69522280D-04
  0.26529752D-03  0.16805139D-04  0.22526647D-02 -0.18475952D-03  0.24787082D-02
 -0.41347062D-02  0.36853658D-03 -0.16618569D-02 -0.26232880D-02  0.18574198D-03
 -0.57742676D-02  0.24689363D-03  0.10038595D-03  0.35915335D-05  0.17630457D-04
 -0.15297941D-03 -0.62597978D-04 -0.47502821D-04 -0.14817843D-03  0.51823377D-04
 -0.53885486D-05  0.70890580D-04  0.33051738D-02  0.59610170D-02  0.87895161D-02
 -0.13905826D-01 -0.65067136D-02 -0.11988554D-03 -0.57568653D-02  0.45979248D-02
  0.12412363D-01 -0.26769986D-02 -0.46399174D-02  0.16404970D-02 -0.42257677D-03
 -0.47269745D-03  0.29484488D-03  0.55384681D-03 -0.23821589D-02  0.18283121D-02
 -0.23796474D-02 -0.20124577D-02  0.64610108D-03  0.13772333D-03 -0.20302808D-03
  0.65304748D-04 -0.24046067D-03 -0.15812398D-03 -0.43119128D-05  0.35297090D-02
  0.63659756D-02  0.93866273D-02 -0.11824087D-01 -0.62556485D-02 -0.11974007D-03
 -0.51063710D-02 -0.46573967D-02  0.12570608D-01 -0.28063325D-02  0.41619088D-02
  0.18106650D-02 -0.43397088D-03  0.47217127D-03  0.27573120D-03  0.19375961D-03
 -0.21203005D-02  0.19265409D-02  0.25266442D-02 -0.19691415D-02 -0.88462920D-03
  0.12711514D-03 -0.20358637D-03  0.76471235D-04  0.25847065D-03 -0.14918588D-03
  0.10603439D-04
END DATA
 TOTAL ENERGY =    -76.465284925993 THE VIRIAL(-V/T)=   2.00665726
