 83
GAUSSIAN              5 MOL ORBITALS    126 PRIMITIVES        3 NUCLEI   B3LYP
  O    1    (CENTRE  1)   0.00000000  0.00000000  0.00815606  CHARGE =  8.0
  H    2    (CENTRE  2)  -0.09448631 -1.44255835 -1.09730160  CHARGE =  1.0
  H    3    (CENTRE  3)   0.00000000  1.44255835 -1.19178791  CHARGE =  1.0
CENTRE ASSIGNMENTS    1  1  1  1  1  1  1  1  1  1  1  1  1  1  1  1  1  1  1  1
CENTRE ASSIGNMENTS    1  1  1  1  1  1  1  1  1  1  1  1  1  1  1  1  1  1  1  1
CENTRE ASSIGNMENTS    1  1  1  1  1  1  1  1  1  1  1  1  1  1  1  1  1  1  1  1
CENTRE ASSIGNMENTS    1  1  1  1  1  1  1  1  1  1  1  1  2  2  2  2  2  2  2  2
CENTRE ASSIGNMENTS    2  2  2  2  2  2  2  2  2  2  2  2  2  2  2  2  2  2  2  3
CENTRE ASSIGNMENTS    3  3  3  3  3  3  3  3  3  3  3  3  3  3  3  3  3  3  3  3
CENTRE ASSIGNMENTS    3  3  3  3  3  3
TYPE ASSIGNMENTS      1  1  1  1  1  1  1  1  1  1  1  1  1  1  1  1  2  2  2  3
TYPE ASSIGNMENTS      3  3  4  4  4  2  3  4  2  3  4  2  3  4  5  6  7  8  9 10
TYPE ASSIGNMENTS      5  6  7  8  9 10  5  6  7  8  9 10 11 12 13 17 14 15 18 19
TYPE ASSIGNMENTS     16 20 11 12 13 17 14 15 18 19 16 20  1  1  1  1  1  1  2  3
TYPE ASSIGNMENTS      4  2  3  4  2  3  4  5  6  7  8  9 10  5  6  7  8  9 10  1
TYPE ASSIGNMENTS      1  1  1  1  1  2  3  4  2  3  4  2  3  4  5  6  7  8  9 10
TYPE ASSIGNMENTS      5  6  7  8  9 10
EXPONENTS  0.1533000D+05 0.2299000D+04 0.5224000D+03 0.1473000D+03 0.4755000D+02
EXPONENTS  0.1676000D+02 0.6207000D+01 0.5224000D+03 0.1473000D+03 0.4755000D+02
EXPONENTS  0.1676000D+02 0.6207000D+01 0.6882000D+00 0.1752000D+01 0.2384000D+00
EXPONENTS  0.7376000D-01 0.3446000D+02 0.7749000D+01 0.2280000D+01 0.3446000D+02
EXPONENTS  0.7749000D+01 0.2280000D+01 0.3446000D+02 0.7749000D+01 0.2280000D+01
EXPONENTS  0.7156000D+00 0.7156000D+00 0.7156000D+00 0.2140000D+00 0.2140000D+00
EXPONENTS  0.2140000D+00 0.5974000D-01 0.5974000D-01 0.5974000D-01 0.2314000D+01
EXPONENTS  0.2314000D+01 0.2314000D+01 0.2314000D+01 0.2314000D+01 0.2314000D+01
EXPONENTS  0.6450000D+00 0.6450000D+00 0.6450000D+00 0.6450000D+00 0.6450000D+00
EXPONENTS  0.6450000D+00 0.2140000D+00 0.2140000D+00 0.2140000D+00 0.2140000D+00
EXPONENTS  0.2140000D+00 0.2140000D+00 0.1428000D+01 0.1428000D+01 0.1428000D+01
EXPONENTS  0.1428000D+01 0.1428000D+01 0.1428000D+01 0.1428000D+01 0.1428000D+01
EXPONENTS  0.1428000D+01 0.1428000D+01 0.5000000D+00 0.5000000D+00 0.5000000D+00
EXPONENTS  0.5000000D+00 0.5000000D+00 0.5000000D+00 0.5000000D+00 0.5000000D+00
EXPONENTS  0.5000000D+00 0.5000000D+00 0.3387000D+02 0.5095000D+01 0.1159000D+01
EXPONENTS  0.3258000D+00 0.1027000D+00 0.2526000D-01 0.1407000D+01 0.1407000D+01
EXPONENTS  0.1407000D+01 0.3880000D+00 0.3880000D+00 0.3880000D+00 0.1020000D+00
EXPONENTS  0.1020000D+00 0.1020000D+00 0.1057000D+01 0.1057000D+01 0.1057000D+01
EXPONENTS  0.1057000D+01 0.1057000D+01 0.1057000D+01 0.2470000D+00 0.2470000D+00
EXPONENTS  0.2470000D+00 0.2470000D+00 0.2470000D+00 0.2470000D+00 0.3387000D+02
EXPONENTS  0.5095000D+01 0.1159000D+01 0.3258000D+00 0.1027000D+00 0.2526000D-01
EXPONENTS  0.1407000D+01 0.1407000D+01 0.1407000D+01 0.3880000D+00 0.3880000D+00
EXPONENTS  0.3880000D+00 0.1020000D+00 0.1020000D+00 0.1020000D+00 0.1057000D+01
EXPONENTS  0.1057000D+01 0.1057000D+01 0.1057000D+01 0.1057000D+01 0.1057000D+01
EXPONENTS  0.2470000D+00 0.2470000D+00 0.2470000D+00 0.2470000D+00 0.2470000D+00
EXPONENTS  0.2470000D+00
MO    1     MO 0.0        OCC NO =    2.0000000  ORB. ENERGY =    0.000000
  0.20114440D+00  0.37490009D+00  0.63569579D+00  0.96205798D+00  0.12000915D+01
  0.10298571D+01  0.39438054D+00  0.12980562D-03  0.13927291D-02  0.51338617D-02
  0.15011110D-01  0.18089118D-01 -0.21790260D-01  0.10291692D-01  0.19879673D-01
  0.39494924D-02 -0.32588224D-01 -0.31599615D-01 -0.21316914D-01  0.11883768D+01
  0.11523258D+01  0.77735215D+00  0.67932654D+00  0.65871823D+00  0.44436743D+00
 -0.83197738D-02  0.24796332D+00  0.14709135D+00 -0.22390835D-02  0.24640311D-01
  0.16946144D-01 -0.99332505D-04  0.27050592D-03  0.32786087D-03  0.20414324D-01
 -0.40053230D-02 -0.16409001D-01 -0.60190008D-02 -0.27428288D-02 -0.11143024D+00
  0.29180254D-02  0.23552111D-02 -0.52732366D-02 -0.66514808D-03 -0.12037464D-03
 -0.15657145D-01 -0.40227607D-03  0.66765585D-03 -0.26537977D-03  0.91221149D-04
  0.10558694D-03  0.53791781D-03 -0.15207859D-03  0.52600469D-02  0.10386257D-02
  0.37990157D-03 -0.12473789D-01 -0.79598730D-02  0.76334206D-04 -0.33063513D-02
  0.48439959D-02  0.16266309D-02 -0.76741924D-05  0.10280284D-03  0.32304457D-03
 -0.91123295D-05 -0.78673921D-03 -0.17479450D-03  0.32134907D-04  0.47833069D-03
 -0.79433920D-03  0.85005271D-04 -0.44510106D-01 -0.80275809D-01 -0.11836663D+00
 -0.82843006D-01 -0.10671014D-01  0.55321244D-04 -0.34241822D-02 -0.30183101D-01
 -0.24263655D-01 -0.15529332D-02 -0.12040349D-01 -0.93009634D-02 -0.99046923D-04
  0.18601810D-03  0.29276200D-03  0.79540737D-02 -0.64090154D-02 -0.15450583D-02
 -0.25969786D-02 -0.20604149D-02 -0.22227556D-01  0.10658961D-03  0.21848097D-04
 -0.12843771D-03 -0.89588902D-04 -0.73800947D-04 -0.27157430D-03  0.15067950D-01
  0.27175668D-01  0.40070506D-01  0.26551722D-01  0.25712147D-02 -0.15347330D-03
 -0.57272999D-03 -0.93437493D-03  0.18689644D-01 -0.35865678D-03  0.79449176D-03
  0.79687153D-02 -0.75541068D-04  0.38889131D-03  0.56249327D-03 -0.29767831D-02
 -0.15461964D-02  0.45229795D-02  0.32798220D-03 -0.23803208D-03 -0.10030063D-01
 -0.24479629D-04 -0.22492584D-03  0.24940547D-03  0.24277887D-04 -0.42175726D-04
 -0.65923872D-03
MO    2     MO 0.0        OCC NO =    2.0000000  ORB. ENERGY =    0.000000
  0.23151785D-01  0.43151120D-01  0.73168788D-01  0.11073318D+00  0.13813091D+00
  0.11853688D+00  0.45393326D-01  0.20999134D-03  0.22530693D-02  0.83052377D-02
  0.24284028D-01  0.29263434D-01 -0.35250908D-01 -0.17950409D-01  0.30867944D-01
  0.69150540D-02  0.18008401D+00  0.17462091D+00  0.11779824D+00 -0.70847988D+00
 -0.68698716D+00 -0.46343748D+00  0.13092762D+01  0.12695575D+01  0.85643599D+00
  0.40617377D-01 -0.15022811D+00  0.28610670D+00  0.65003087D-02 -0.15984815D-01
  0.34557245D-01  0.20259166D-03 -0.17517105D-03  0.64899120D-03  0.38197451D-01
 -0.11976750D-02 -0.36999776D-01 -0.34302039D-03 -0.10039900D-01  0.65675403D-01
  0.60003128D-02  0.46798200D-02 -0.10680133D-01  0.30967228D-03 -0.26361268D-02
  0.10412248D-01 -0.52081901D-03  0.10533799D-02 -0.53256086D-03  0.11288237D-03
 -0.11419949D-03 -0.11029359D-04 -0.13042285D-02 -0.31811299D-02  0.11841538D-02
  0.14583276D-02  0.83393057D-02 -0.16672870D-01  0.24543580D-02  0.12040840D-02
  0.13120409D-01  0.14760857D-02 -0.37299893D-04 -0.14714458D-04  0.58386647D-03
 -0.36374425D-04  0.63070163D-03 -0.47345362D-03  0.14827410D-03 -0.58655826D-03
 -0.12781458D-02 -0.18932658D-03 -0.85557007D-02 -0.15430559D-01 -0.22752350D-01
 -0.16723528D-01 -0.33881650D-02 -0.15044552D-03  0.19579224D-02 -0.16249458D-01
  0.10308116D-01  0.10778120D-02 -0.77194892D-02  0.50050212D-02  0.20003613D-03
 -0.37377965D-03  0.92165390D-03  0.53242395D-03 -0.50626723D-02  0.45302484D-02
  0.73154329D-03  0.11558547D-02  0.15844613D-02  0.71798473D-04 -0.30130536D-03
  0.22950688D-03  0.10799017D-03  0.10135485D-03  0.61459805D-03 -0.44973806D-01
 -0.81112112D-01 -0.11959976D+00 -0.82228626D-01 -0.12058217D-01 -0.24905426D-04
  0.23516428D-02  0.31896175D-01 -0.16714324D-01  0.12729198D-02  0.13838063D-01
 -0.63853371D-02  0.19795684D-03  0.11466006D-03  0.66260164D-03  0.67056698D-02
 -0.67271833D-02  0.21513543D-04 -0.11562694D-02  0.81035804D-03  0.17490057D-01
  0.26076136D-03 -0.19891299D-03 -0.61848365D-04 -0.11704573D-03  0.45764223D-04
  0.27853599D-03
MO    3     MO 0.0        OCC NO =    2.0000000  ORB. ENERGY =    0.000000
  0.44463494D+00  0.82872642D+00  0.14052221D+01  0.21266542D+01  0.26528335D+01
  0.22765258D+01  0.87178845D+00  0.25651373D-03  0.27522240D-02  0.10145216D-01
  0.29664016D-01  0.35746582D-01 -0.43060546D-01  0.26198486D-01 -0.22566778D-01
 -0.27729435D-02 -0.53019261D+00 -0.51410848D+00 -0.34681454D+00 -0.48321250D+00
 -0.46855358D+00 -0.31608348D+00 -0.33325364D+00 -0.32314393D+00 -0.21799099D+00
 -0.11927615D+00 -0.10127486D+00 -0.69960657D-01 -0.19384520D-01 -0.10020460D-01
 -0.85279722D-02 -0.61412314D-03 -0.10096895D-03 -0.15633181D-03 -0.84984729D-02
  0.76286035D-03  0.77356126D-02  0.36960715D-02  0.23222781D-01  0.46853139D-01
 -0.11179400D-03 -0.22465505D-02  0.23583445D-02  0.22737911D-03  0.58296589D-02
  0.69729717D-02  0.26888764D-03 -0.38247559D-03  0.11358796D-03 -0.71132032D-04
  0.35630273D-03 -0.17608487D-03  0.33126826D-02 -0.20057734D-02 -0.28469782D-03
 -0.66748451D-02  0.48832621D-02  0.36572353D-02 -0.32632026D-02  0.11340579D-02
 -0.28031419D-02 -0.82095202D-03  0.13030455D-03 -0.22416490D-04 -0.24709749D-03
 -0.18411793D-03  0.31541785D-03 -0.28284716D-03 -0.20679572D-03 -0.24816838D-03
  0.10241396D-02  0.15656455D-03  0.17001277D-01  0.30662503D-01  0.45211842D-01
  0.34393403D-01  0.50295333D-02 -0.97080343D-05 -0.62732567D-02  0.10338697D-01
  0.76379637D-02 -0.34786416D-02  0.47880593D-02  0.31853400D-02 -0.59072868D-03
 -0.55875229D-04 -0.18077489D-03 -0.23665248D-02  0.19274863D-02  0.43903848D-03
 -0.29474356D-02 -0.21404785D-02  0.58198807D-02 -0.68820816D-04  0.92952459D-05
  0.59525570D-04 -0.35078085D-03 -0.21037553D-03  0.86068575D-04 -0.79492809D-02
 -0.14336856D-01 -0.21139685D-01 -0.10705495D-01 -0.23366125D-03  0.88898001D-04
 -0.67975314D-02  0.24444186D-02 -0.99415382D-02 -0.36933393D-02 -0.36304354D-03
 -0.36794453D-02 -0.57181526D-03 -0.20891631D-03 -0.25856181D-03  0.20871614D-02
  0.11035526D-03 -0.21975167D-02  0.33238781D-02 -0.26498611D-02  0.68246801D-02
 -0.31736136D-05  0.11051056D-03 -0.10733695D-03  0.34144485D-03 -0.20741374D-03
  0.28236929D-03
MO    4     MO 0.0        OCC NO =    2.0000000  ORB. ENERGY =    0.000000
  0.14344093D+00  0.26735031D+00  0.45333001D+00  0.68606677D+00  0.85581422D+00
  0.73441592D+00  0.28124228D+00  0.42391061D-03  0.45482827D-02  0.16765826D-01
  0.49022293D-01  0.59074247D-01 -0.71161190D-01 -0.26890039D-01 -0.28679631D-01
 -0.28461276D-02  0.16602142D+01  0.16098493D+01  0.10859948D+01 -0.57517220D-01
 -0.55772356D-01 -0.37623702D-01 -0.33890069D+00 -0.32861967D+00 -0.22168489D+00
  0.37516561D+00 -0.13126467D-01 -0.72826577D-01  0.62149198D-01 -0.22002028D-02
 -0.10515963D-01  0.20134063D-02 -0.71689191D-04 -0.23231094D-03 -0.58161112D-02
 -0.39998240D-02  0.98159352D-02 -0.35771448D-02 -0.66620181D-01  0.26528251D-02
 -0.33142391D-03 -0.22945704D-02  0.26259943D-02 -0.38623855D-03 -0.17787581D-01
  0.89682010D-03  0.95616927D-04 -0.24225344D-03  0.14663651D-03  0.44042183D-04
 -0.12517154D-02  0.47881548D-04 -0.97822808D-02 -0.64315927D-03 -0.11165018D-02
  0.19907093D-01  0.24337442D-02  0.41123755D-02  0.94397493D-02 -0.50426642D-03
 -0.76287008D-03 -0.35531863D-03 -0.43601916D-03 -0.22382870D-04 -0.11983980D-03
  0.68442926D-03  0.83173575D-04  0.21705010D-04  0.62362821D-03 -0.16024966D-04
  0.33781440D-03 -0.36713643D-03  0.36419647D-03  0.65684334D-03  0.96851512D-03
  0.65965785D-02  0.22894542D-02  0.41408725D-04  0.23016068D-01 -0.10733316D-02
 -0.49830860D-02  0.12635686D-01  0.13250140D-02 -0.13017829D-02  0.19406824D-02
  0.62653167D-04 -0.24972305D-03  0.83976148D-03  0.31655718D-03 -0.11563187D-02
  0.11553491D-01  0.83891231D-02 -0.18076683D-02  0.34082315D-04  0.25595674D-04
 -0.59677990D-04  0.11997845D-02  0.73839165D-03 -0.12525099D-03  0.78515329D-03
  0.14160563D-02  0.20879742D-02  0.71569642D-02  0.24697806D-02  0.43944402D-04
  0.21487629D-01 -0.85078599D-03 -0.44069222D-02  0.11711886D-01 -0.23379176D-02
 -0.97932357D-03  0.18405759D-02 -0.22285001D-03 -0.21974530D-03 -0.69229702D-04
  0.11854840D-02 -0.11162542D-02 -0.10544501D-01  0.84187457D-02  0.59934480D-03
 -0.60086590D-04  0.11654338D-03 -0.56456787D-04 -0.10664659D-02  0.70012630D-03
  0.25815125D-04
MO    5     MO 0.0        OCC NO =    2.0000000  ORB. ENERGY =    0.000000
 -0.34624500D-02 -0.64534375D-02 -0.10942710D-01 -0.16560628D-01 -0.20658078D-01
 -0.17727705D-01 -0.67887691D-02 -0.16592963D-02 -0.17803160D-01 -0.65625800D-01
 -0.19188599D+00 -0.23123195D+00  0.27854339D+00  0.17100414D+00  0.94308201D-01
  0.75724424D-02  0.37536658D+00  0.36397932D+00  0.24553830D+00 -0.77792557D-01
 -0.75432612D-01 -0.50886394D-01  0.38966207D+00  0.37784113D+00  0.25488939D+00
  0.84533297D-01 -0.15864995D-01  0.80346250D-01  0.14043740D-01 -0.14668958D-02
  0.13651609D-01  0.44649692D-03 -0.26002133D-04  0.24106860D-03 -0.10365208D-01
  0.19603645D-01 -0.92384365D-02  0.15119031D-02 -0.14349299D-01  0.70614874D-02
 -0.42539548D-02  0.62737026D-02 -0.20197478D-02  0.66026035D-03 -0.37137810D-02
  0.93246543D-04 -0.22697719D-03  0.32900456D-03 -0.10202737D-03  0.48219329D-04
 -0.26447110D-03 -0.91640356D-04 -0.20685838D-02 -0.61919436D-03  0.24449207D-02
  0.38543719D-02  0.11364125D-02  0.14501665D-02  0.23513796D-02  0.72117058D-03
 -0.87849286D-02 -0.68757980D-03 -0.90066473D-04 -0.14873907D-04 -0.77011887D-04
  0.15069460D-03 -0.31971148D-04  0.14645566D-03  0.11950482D-03  0.76592868D-04
  0.84580002D-04 -0.77478200D-04  0.12944571D-01  0.23346067D-01  0.34423763D-01
  0.79579906D-03 -0.52122759D-02 -0.12708616D-03  0.61979748D-02  0.13386890D-01
  0.17515172D-01  0.27875734D-02 -0.19537457D-02  0.30026658D-02  0.41107040D-03
 -0.50779396D-03  0.18136734D-03 -0.12054396D-02 -0.58313072D-03  0.17885704D-02
  0.27874463D-02  0.22943480D-02  0.54825081D-02  0.12497555D-03 -0.18977756D-03
  0.64802003D-04  0.23782312D-03  0.15617646D-03 -0.26815523D-04  0.82914445D-02
  0.14953962D-01  0.22049608D-01 -0.62997872D-02 -0.60312812D-02 -0.11307170D-03
  0.49202070D-02 -0.10132852D-01  0.14122761D-01  0.27185586D-02  0.26524423D-02
  0.17650585D-02  0.42293957D-03  0.47165981D-03  0.13899751D-03 -0.49702098D-03
 -0.10454955D-02  0.15425165D-02 -0.24472111D-02  0.19097436D-02 -0.26403650D-02
  0.11553246D-03 -0.17279054D-03  0.57258080D-04 -0.24961278D-03  0.14887259D-03
  0.78958752D-04
END DATA
 TOTAL ENERGY =    -76.465284925994 THE VIRIAL(-V/T)=   2.00665726
