 84
GAUSSIAN              5 MOL ORBITALS    126 PRIMITIVES        3 NUCLEI   B3LYP
  O    1    (CENTRE  1)   0.00000000  0.00000000  0.00815606  CHARGE =  8.0
  H    2    (CENTRE  2)   0.00000000 -1.53704465 -1.09730160  CHARGE =  1.0
  H    3    (CENTRE  3)   0.00000000  1.44255835 -1.00281530  CHARGE =  1.0
CENTRE ASSIGNMENTS    1  1  1  1  1  1  1  1  1  1  1  1  1  1  1  1  1  1  1  1
CENTRE ASSIGNMENTS    1  1  1  1  1  1  1  1  1  1  1  1  1  1  1  1  1  1  1  1
CENTRE ASSIGNMENTS    1  1  1  1  1  1  1  1  1  1  1  1  1  1  1  1  1  1  1  1
CENTRE ASSIGNMENTS    1  1  1  1  1  1  1  1  1  1  1  1  2  2  2  2  2  2  2  2
CENTRE ASSIGNMENTS    2  2  2  2  2  2  2  2  2  2  2  2  2  2  2  2  2  2  2  3
CENTRE ASSIGNMENTS    3  3  3  3  3  3  3  3  3  3  3  3  3  3  3  3  3  3  3  3
CENTRE ASSIGNMENTS    3  3  3  3  3  3
TYPE ASSIGNMENTS      1  1  1  1  1  1  1  1  1  1  1  1  1  1  1  1  2  2  2  3
TYPE ASSIGNMENTS      3  3  4  4  4  2  3  4  2  3  4  2  3  4  5  6  7  8  9 10
TYPE ASSIGNMENTS      5  6  7  8  9 10  5  6  7  8  9 10 11 12 13 17 14 15 18 19
TYPE ASSIGNMENTS     16 20 11 12 13 17 14 15 18 19 16 20  1  1  1  1  1  1  2  3
TYPE ASSIGNMENTS      4  2  3  4  2  3  4  5  6  7  8  9 10  5  6  7  8  9 10  1
TYPE ASSIGNMENTS      1  1  1  1  1  2  3  4  2  3  4  2  3  4  5  6  7  8  9 10
TYPE ASSIGNMENTS      5  6  7  8  9 10
EXPONENTS  0.1533000D+05 0.2299000D+04 0.5224000D+03 0.1473000D+03 0.4755000D+02
EXPONENTS  0.1676000D+02 0.6207000D+01 0.5224000D+03 0.1473000D+03 0.4755000D+02
EXPONENTS  0.1676000D+02 0.6207000D+01 0.6882000D+00 0.1752000D+01 0.2384000D+00
EXPONENTS  0.7376000D-01 0.3446000D+02 0.7749000D+01 0.2280000D+01 0.3446000D+02
EXPONENTS  0.7749000D+01 0.2280000D+01 0.3446000D+02 0.7749000D+01 0.2280000D+01
EXPONENTS  0.7156000D+00 0.7156000D+00 0.7156000D+00 0.2140000D+00 0.2140000D+00
EXPONENTS  0.2140000D+00 0.5974000D-01 0.5974000D-01 0.5974000D-01 0.2314000D+01
EXPONENTS  0.2314000D+01 0.2314000D+01 0.2314000D+01 0.2314000D+01 0.2314000D+01
EXPONENTS  0.6450000D+00 0.6450000D+00 0.6450000D+00 0.6450000D+00 0.6450000D+00
EXPONENTS  0.6450000D+00 0.2140000D+00 0.2140000D+00 0.2140000D+00 0.2140000D+00
EXPONENTS  0.2140000D+00 0.2140000D+00 0.1428000D+01 0.1428000D+01 0.1428000D+01
EXPONENTS  0.1428000D+01 0.1428000D+01 0.1428000D+01 0.1428000D+01 0.1428000D+01
EXPONENTS  0.1428000D+01 0.1428000D+01 0.5000000D+00 0.5000000D+00 0.5000000D+00
EXPONENTS  0.5000000D+00 0.5000000D+00 0.5000000D+00 0.5000000D+00 0.5000000D+00
EXPONENTS  0.5000000D+00 0.5000000D+00 0.3387000D+02 0.5095000D+01 0.1159000D+01
EXPONENTS  0.3258000D+00 0.1027000D+00 0.2526000D-01 0.1407000D+01 0.1407000D+01
EXPONENTS  0.1407000D+01 0.3880000D+00 0.3880000D+00 0.3880000D+00 0.1020000D+00
EXPONENTS  0.1020000D+00 0.1020000D+00 0.1057000D+01 0.1057000D+01 0.1057000D+01
EXPONENTS  0.1057000D+01 0.1057000D+01 0.1057000D+01 0.2470000D+00 0.2470000D+00
EXPONENTS  0.2470000D+00 0.2470000D+00 0.2470000D+00 0.2470000D+00 0.3387000D+02
EXPONENTS  0.5095000D+01 0.1159000D+01 0.3258000D+00 0.1027000D+00 0.2526000D-01
EXPONENTS  0.1407000D+01 0.1407000D+01 0.1407000D+01 0.3880000D+00 0.3880000D+00
EXPONENTS  0.3880000D+00 0.1020000D+00 0.1020000D+00 0.1020000D+00 0.1057000D+01
EXPONENTS  0.1057000D+01 0.1057000D+01 0.1057000D+01 0.1057000D+01 0.1057000D+01
EXPONENTS  0.2470000D+00 0.2470000D+00 0.2470000D+00 0.2470000D+00 0.2470000D+00
EXPONENTS  0.2470000D+00
MO    1     MO 0.0        OCC NO =    2.0000000  ORB. ENERGY =    0.000000
 -0.88940666D-02 -0.16577078D-01 -0.28108765D-01 -0.42539627D-01 -0.53064831D-01
 -0.45537520D-01 -0.17438451D-01 -0.48956982D-03 -0.52527629D-02 -0.19362673D-01
 -0.56615321D-01 -0.68224214D-01  0.82183296D-01  0.49095597D-01 -0.21619008D-01
 -0.66637530D-02 -0.50705216D+00 -0.49167003D+00 -0.33167770D+00  0.97977349D-01
  0.95005071D-01  0.64089859D-01 -0.13775274D+01 -0.13357382D+01 -0.90108109D+00
 -0.11448716D+00  0.15214213D-01 -0.30059991D+00 -0.18846148D-01 -0.75866452D-03
 -0.35812949D-01 -0.60843691D-03 -0.83942506D-05 -0.73948833D-03 -0.43616567D-01
  0.10458311D-01  0.33158256D-01 -0.18443055D-02  0.20135662D-01 -0.13419882D-01
 -0.64963037D-02 -0.37862293D-02  0.10282533D-01  0.89255763D-04  0.51746688D-02
  0.15715660D-02  0.72103659D-03 -0.13165152D-02  0.59547857D-03  0.68645195D-04
  0.35135231D-03  0.84608461D-03  0.30055026D-02  0.66466448D-04  0.24135695D-03
 -0.67698253D-02  0.32679623D-03  0.17411481D-01 -0.22466825D-02 -0.52619557D-03
 -0.18135552D-01  0.19298748D-03  0.10546786D-03  0.19223608D-03 -0.61190856D-03
 -0.15850547D-03  0.25270932D-03  0.16634247D-03 -0.15789809D-03 -0.82941757D-03
  0.16693832D-02 -0.27180635D-03  0.27347796D-01  0.49322876D-01  0.72726551D-01
  0.47527307D-01  0.74600107D-02  0.10015427D-03 -0.64103584D-02  0.25042665D-01
  0.20518558D-02 -0.35284762D-02  0.10717388D-01 -0.23037455D-03 -0.56203686D-03
  0.25308807D-03 -0.89299720D-03 -0.30028526D-02  0.59809132D-02 -0.29780606D-02
 -0.33030834D-02 -0.23332970D-02  0.59147229D-02 -0.23462630D-03  0.33642828D-03
 -0.10180198D-03 -0.34077912D-03 -0.19449100D-03 -0.21001882D-03  0.33418698D-01
  0.60271998D-01  0.88871026D-01  0.60390555D-01  0.74111217D-02  0.65462625D-04
 -0.75502444D-02 -0.34805047D-01  0.65076480D-02 -0.41221609D-02 -0.13042729D-01
  0.18858373D-03 -0.62656433D-03 -0.54479683D-04 -0.10676759D-02 -0.48762284D-02
  0.85182622D-02 -0.36420338D-02  0.38378724D-02 -0.26401932D-02 -0.11071392D-01
 -0.12003545D-05  0.21800619D-03 -0.21680584D-03  0.41185576D-03 -0.24953468D-03
  0.71737898D-03
MO    2     MO 0.0        OCC NO =    2.0000000  ORB. ENERGY =    0.000000
 -0.46848996D-02 -0.87318825D-02 -0.14806134D-01 -0.22407509D-01 -0.27951601D-01
 -0.23986632D-01 -0.91856059D-02 -0.22232658D-04 -0.23854183D-03 -0.87931009D-03
 -0.25710511D-02 -0.30982416D-02  0.37321604D-02  0.16711375D-02 -0.14234123D-01
 -0.26747928D-02  0.17114588D+01  0.16595393D+01  0.11195154D+01  0.78811410D-01
  0.76420557D-01  0.51552856D-01 -0.45892092D+00 -0.44499892D+00 -0.30019364D+00
  0.38642979D+00  0.14897523D-01 -0.99709027D-01  0.63611612D-01  0.74059297D-03
 -0.12188666D-01  0.20536638D-02  0.67044251D-05 -0.25165637D-03 -0.12724451D-01
  0.15943643D-02  0.11130087D-01  0.62251048D-02 -0.67964122D-01 -0.84724571D-02
 -0.16697089D-02 -0.17326143D-02  0.34023232D-02 -0.30126597D-03 -0.17466117D-01
 -0.24851201D-03  0.24877147D-03 -0.44486500D-03  0.19609353D-03 -0.23169889D-03
 -0.11859234D-02  0.29021390D-03 -0.10144506D-01  0.26756396D-03 -0.13812670D-03
  0.22850266D-01 -0.45411140D-03  0.52891741D-02  0.75832524D-02 -0.34858048D-03
 -0.48747940D-02 -0.65139277D-03 -0.35598682D-03  0.64837476D-04 -0.18403147D-03
  0.53500528D-03  0.31375108D-04  0.37016652D-04  0.53295518D-03 -0.22588753D-03
  0.51507775D-03  0.91743100D-03  0.64222017D-02  0.11582705D-01  0.17078692D-01
  0.12658624D-01  0.24659856D-02  0.44733386D-04  0.21636954D-01  0.61911440D-02
 -0.13114752D-02  0.11909705D-01  0.32634184D-02 -0.60690613D-03  0.18970492D-02
  0.12665540D-03 -0.29975758D-03 -0.66768522D-03  0.18090406D-02 -0.11413553D-02
  0.11148934D-01  0.78756033D-02  0.90662416D-03 -0.80184664D-04  0.12596172D-03
 -0.45777053D-04  0.11502355D-02  0.65646762D-03 -0.93818460D-04  0.10637580D-01
  0.19185314D-01  0.28288734D-01  0.21197221D-01  0.29945477D-02  0.25992017D-04
  0.25484424D-01 -0.10467971D-01  0.16118778D-02  0.13913575D-01 -0.44843561D-02
  0.20305938D-03  0.21148495D-02 -0.43047650D-04 -0.34493624D-03 -0.16662578D-02
  0.28448784D-02 -0.11786206D-02 -0.12954013D-01  0.89114734D-02 -0.37146249D-02
 -0.85726308D-05  0.74324242D-04 -0.65751612D-04 -0.13901413D-02  0.84225718D-03
  0.20888181D-03
MO    3     MO 0.0        OCC NO =    2.0000000  ORB. ENERGY =    0.000000
  0.99020788D-01  0.18455847D+00  0.31294482D+00  0.47360870D+00  0.59078953D+00
  0.50698531D+00  0.19414844D+00  0.17130827D-03  0.18380253D-02  0.67753073D-02
  0.19810601D-01  0.23872738D-01 -0.28757242D-01 -0.45905497D-02 -0.12992335D-01
 -0.66468003D-03 -0.60137816D-01 -0.58313452D-01 -0.39337910D-01  0.14298408D+01
  0.13864646D+01  0.93530083D+00  0.41272015D-01  0.40019972D-01  0.26997237D-01
 -0.13578500D-01  0.29683423D+00  0.13887063D-01 -0.22352063D-02  0.27359166D-01
  0.32958441D-02 -0.72162332D-04  0.26578132D-03  0.58032109D-04  0.12550727D-02
  0.19086785D-02 -0.31637511D-02 -0.21873983D-03  0.23881462D-02 -0.13093598D+00
  0.16520614D-02 -0.12416081D-02 -0.41045335D-03  0.10585985D-04  0.61373031D-03
 -0.18035559D-01  0.30762661D-03 -0.27706925D-03 -0.30557363D-04  0.81415137D-05
  0.41671375D-04  0.10519915D-02  0.35646108D-03  0.72589107D-02 -0.45706966D-03
 -0.80292036D-03 -0.15704152D-01 -0.16434981D-02 -0.26646288D-03 -0.60725801D-02
  0.30147071D-02  0.22888859D-04  0.12508785D-04  0.11978084D-03 -0.16748609D-03
 -0.18799196D-04 -0.84294957D-03 -0.42243979D-03 -0.18727159D-04  0.48360705D-03
  0.92489806D-03 -0.32237000D-04 -0.38685822D-01 -0.69771473D-01 -0.10287800D+00
 -0.67616428D-01 -0.82730113D-02  0.12789390D-03 -0.76028658D-03 -0.21678234D-01
 -0.24214292D-01 -0.41848722D-03 -0.76501864D-02 -0.98088047D-02 -0.66659156D-04
  0.20615476D-03 -0.16734439D-03  0.66548318D-02 -0.43891559D-02 -0.22656759D-02
 -0.39175501D-03 -0.27673560D-03 -0.19268461D-01  0.10621185D-03  0.75027600D-04
 -0.18123945D-03 -0.40417364D-04 -0.23067181D-04 -0.84619213D-03  0.35386729D-01
  0.63821423D-01  0.94104651D-01  0.68232166D-01  0.76149120D-02 -0.10982279D-03
 -0.89548027D-03 -0.21666694D-01  0.27164023D-01 -0.48889990D-03 -0.73873611D-02
  0.10562900D-01 -0.74312295D-04  0.39118509D-03  0.14871872D-03 -0.67976306D-02
  0.42365768D-02  0.25610538D-02  0.45518248D-03 -0.31313436D-03 -0.20324700D-01
  0.96362246D-04 -0.31623377D-03  0.21987153D-03  0.48847254D-04 -0.29595517D-04
 -0.29517024D-03
MO    4     MO 0.0        OCC NO =    2.0000000  ORB. ENERGY =    0.000000
 -0.21718547D+00 -0.40479801D+00 -0.68639192D+00 -0.10387812D+01 -0.12957976D+01
 -0.11119872D+01 -0.42583201D+00 -0.16189376D-02 -0.17370138D-01 -0.64029598D-01
 -0.18721879D+00 -0.22560775D+00  0.27176844D+00  0.14166697D+00  0.98070679D-01
  0.88962947D-02  0.10704999D+00  0.10380248D+00  0.70024540D-01  0.16618034D+00
  0.16113903D+00  0.10870344D+00  0.68418107D+00  0.66342549D+00  0.44754292D+00
  0.24170787D-01  0.32623744D-01  0.14566479D+00  0.39788410D-02  0.25625918D-02
  0.22599955D-01  0.12845457D-03  0.18905465D-04  0.46338285D-03 -0.16206935D-02
  0.20332479D-01 -0.18711786D-01  0.38937391D-03 -0.42510861D-02 -0.15086994D-01
 -0.27866178D-02  0.76689560D-02 -0.48823383D-02 -0.18843877D-04 -0.10924877D-02
 -0.32912370D-03 -0.30100581D-03  0.57813481D-03 -0.27712900D-03 -0.14492528D-04
 -0.74178289D-04  0.17605094D-03 -0.63452845D-03  0.85248121D-03  0.22767672D-02
  0.14292607D-02 -0.12083954D-02 -0.29854289D-02  0.47432466D-03 -0.13490482D-02
 -0.38448727D-02 -0.40743949D-04 -0.22266610D-04 -0.28352438D-04  0.21866768D-04
  0.33464031D-04  0.93418096D-04  0.87968174D-04  0.33335800D-04 -0.83607810D-05
 -0.15356848D-03  0.57384367D-04  0.89022821D-03  0.16055632D-02  0.23674021D-02
 -0.19343643D-01 -0.82217929D-02 -0.13383442D-03  0.13533692D-02  0.46403653D-02
  0.11856709D-01  0.74493981D-03 -0.53856863D-02  0.15410258D-02  0.11865848D-03
 -0.58436749D-03  0.36127396D-03  0.44283564D-03 -0.25520797D-02  0.21092441D-02
  0.69735438D-03  0.49261090D-03  0.12392578D-02  0.20254270D-03 -0.31113662D-03
  0.10859392D-03  0.71946051D-04  0.41061376D-04 -0.72867890D-04  0.11733551D-01
  0.21161943D-01  0.31203273D-01 -0.21184012D-02 -0.58496945D-02 -0.14489656D-03
  0.15940245D-02 -0.12397545D-01  0.20954872D-01  0.87027985D-03  0.29608898D-02
  0.47261557D-02  0.13228167D-03  0.52641887D-03  0.49676015D-03 -0.19836650D-02
 -0.74818678D-03  0.27318517D-02 -0.81026023D-03  0.55740351D-03 -0.86059008D-02
  0.15230825D-03 -0.29465056D-03  0.14234230D-03 -0.86951911D-04  0.52682322D-04
 -0.16107420D-03
MO    5     MO 0.0        OCC NO =    2.0000000  ORB. ENERGY =    0.000000
  0.44961655D+00  0.83801133D+00  0.14209660D+01  0.21504809D+01  0.26825554D+01
  0.23020316D+01  0.88155582D+00 -0.36529435D-03 -0.39193687D-02 -0.14447531D-01
 -0.42243733D-01 -0.50905752D-01  0.61321373D-01  0.90608627D-01  0.29129133D-01
  0.28396711D-02  0.72757227D-01  0.70550036D-01  0.47592637D-01 -0.23372186D+00
 -0.22663159D+00 -0.15288433D+00  0.22247175D+00  0.21572276D+00  0.14552530D+00
  0.16427833D-01 -0.47053835D-01  0.47689852D-01  0.27042454D-02 -0.38646577D-02
  0.66006784D-02  0.87304986D-04 -0.24341112D-04  0.13229126D-03 -0.12305125D-02
  0.70427727D-02 -0.58122602D-02  0.26464053D-03 -0.28892785D-02  0.19744281D-01
 -0.53146851D-03  0.20596296D-02 -0.15281610D-02 -0.12807364D-04 -0.74251641D-03
  0.23749884D-02 -0.12969573D-03  0.20993924D-03 -0.80243512D-04 -0.98499413D-05
 -0.50415760D-04 -0.31971911D-03 -0.43126142D-03 -0.10850578D-02  0.12035043D-02
  0.97140640D-03  0.17570898D-02 -0.40138707D-04  0.32237786D-03  0.14980837D-02
 -0.35703743D-02 -0.27691892D-04 -0.15133647D-04 -0.44730387D-04 -0.10611142D-03
  0.22744048D-04  0.18893037D-03 -0.19008099D-03  0.22656894D-04 -0.54739205D-04
  0.50841524D-03  0.39001661D-04  0.62350598D-02  0.11245187D-01  0.16581022D-01
  0.60274878D-02 -0.75863365D-03 -0.51646703D-04  0.91982627D-03  0.41455233D-02
  0.76896613D-02  0.50630322D-03 -0.47361583D-03  0.22957997D-02  0.80647015D-04
 -0.18530692D-03  0.15790171D-03 -0.37227455D-03 -0.74518418D-03  0.11174587D-02
  0.47396147D-03  0.33480623D-03  0.21440817D-02  0.40822459D-04 -0.98580303D-04
  0.57757844D-04  0.48898605D-04  0.27907633D-04  0.15102682D-03 -0.53431514D-02
 -0.96365937D-02 -0.14209152D-01 -0.18237379D-01 -0.38905513D-02 -0.32775133D-04
  0.10833892D-02  0.40091706D-02 -0.94257727D-03  0.59149140D-03  0.41263775D-02
 -0.16852096D-02  0.89906101D-04  0.18172928D-03  0.65178576D-04  0.25122735D-02
 -0.29525185D-02  0.44024495D-03 -0.55069867D-03  0.37884295D-03  0.60836921D-02
  0.48840232D-04 -0.56869042D-04  0.80288096D-05 -0.59097436D-04  0.35805885D-04
  0.79003169D-04
END DATA
 TOTAL ENERGY =    -76.463430143544 THE VIRIAL(-V/T)=   2.00617667
