 84
GAUSSIAN              5 MOL ORBITALS    126 PRIMITIVES        3 NUCLEI   B3LYP
  O    1    (CENTRE  1)   0.00000000  0.00000000  0.00815606  CHARGE =  8.0
  H    2    (CENTRE  2)   0.00000000 -1.53704465 -1.09730160  CHARGE =  1.0
  H    3    (CENTRE  3)   0.00000000  1.44255835 -1.19178791  CHARGE =  1.0
CENTRE ASSIGNMENTS    1  1  1  1  1  1  1  1  1  1  1  1  1  1  1  1  1  1  1  1
CENTRE ASSIGNMENTS    1  1  1  1  1  1  1  1  1  1  1  1  1  1  1  1  1  1  1  1
CENTRE ASSIGNMENTS    1  1  1  1  1  1  1  1  1  1  1  1  1  1  1  1  1  1  1  1
CENTRE ASSIGNMENTS    1  1  1  1  1  1  1  1  1  1  1  1  2  2  2  2  2  2  2  2
CENTRE ASSIGNMENTS    2  2  2  2  2  2  2  2  2  2  2  2  2  2  2  2  2  2  2  3
CENTRE ASSIGNMENTS    3  3  3  3  3  3  3  3  3  3  3  3  3  3  3  3  3  3  3  3
CENTRE ASSIGNMENTS    3  3  3  3  3  3
TYPE ASSIGNMENTS      1  1  1  1  1  1  1  1  1  1  1  1  1  1  1  1  2  2  2  3
TYPE ASSIGNMENTS      3  3  4  4  4  2  3  4  2  3  4  2  3  4  5  6  7  8  9 10
TYPE ASSIGNMENTS      5  6  7  8  9 10  5  6  7  8  9 10 11 12 13 17 14 15 18 19
TYPE ASSIGNMENTS     16 20 11 12 13 17 14 15 18 19 16 20  1  1  1  1  1  1  2  3
TYPE ASSIGNMENTS      4  2  3  4  2  3  4  5  6  7  8  9 10  5  6  7  8  9 10  1
TYPE ASSIGNMENTS      1  1  1  1  1  2  3  4  2  3  4  2  3  4  5  6  7  8  9 10
TYPE ASSIGNMENTS      5  6  7  8  9 10
EXPONENTS  0.1533000D+05 0.2299000D+04 0.5224000D+03 0.1473000D+03 0.4755000D+02
EXPONENTS  0.1676000D+02 0.6207000D+01 0.5224000D+03 0.1473000D+03 0.4755000D+02
EXPONENTS  0.1676000D+02 0.6207000D+01 0.6882000D+00 0.1752000D+01 0.2384000D+00
EXPONENTS  0.7376000D-01 0.3446000D+02 0.7749000D+01 0.2280000D+01 0.3446000D+02
EXPONENTS  0.7749000D+01 0.2280000D+01 0.3446000D+02 0.7749000D+01 0.2280000D+01
EXPONENTS  0.7156000D+00 0.7156000D+00 0.7156000D+00 0.2140000D+00 0.2140000D+00
EXPONENTS  0.2140000D+00 0.5974000D-01 0.5974000D-01 0.5974000D-01 0.2314000D+01
EXPONENTS  0.2314000D+01 0.2314000D+01 0.2314000D+01 0.2314000D+01 0.2314000D+01
EXPONENTS  0.6450000D+00 0.6450000D+00 0.6450000D+00 0.6450000D+00 0.6450000D+00
EXPONENTS  0.6450000D+00 0.2140000D+00 0.2140000D+00 0.2140000D+00 0.2140000D+00
EXPONENTS  0.2140000D+00 0.2140000D+00 0.1428000D+01 0.1428000D+01 0.1428000D+01
EXPONENTS  0.1428000D+01 0.1428000D+01 0.1428000D+01 0.1428000D+01 0.1428000D+01
EXPONENTS  0.1428000D+01 0.1428000D+01 0.5000000D+00 0.5000000D+00 0.5000000D+00
EXPONENTS  0.5000000D+00 0.5000000D+00 0.5000000D+00 0.5000000D+00 0.5000000D+00
EXPONENTS  0.5000000D+00 0.5000000D+00 0.3387000D+02 0.5095000D+01 0.1159000D+01
EXPONENTS  0.3258000D+00 0.1027000D+00 0.2526000D-01 0.1407000D+01 0.1407000D+01
EXPONENTS  0.1407000D+01 0.3880000D+00 0.3880000D+00 0.3880000D+00 0.1020000D+00
EXPONENTS  0.1020000D+00 0.1020000D+00 0.1057000D+01 0.1057000D+01 0.1057000D+01
EXPONENTS  0.1057000D+01 0.1057000D+01 0.1057000D+01 0.2470000D+00 0.2470000D+00
EXPONENTS  0.2470000D+00 0.2470000D+00 0.2470000D+00 0.2470000D+00 0.3387000D+02
EXPONENTS  0.5095000D+01 0.1159000D+01 0.3258000D+00 0.1027000D+00 0.2526000D-01
EXPONENTS  0.1407000D+01 0.1407000D+01 0.1407000D+01 0.3880000D+00 0.3880000D+00
EXPONENTS  0.3880000D+00 0.1020000D+00 0.1020000D+00 0.1020000D+00 0.1057000D+01
EXPONENTS  0.1057000D+01 0.1057000D+01 0.1057000D+01 0.1057000D+01 0.1057000D+01
EXPONENTS  0.2470000D+00 0.2470000D+00 0.2470000D+00 0.2470000D+00 0.2470000D+00
EXPONENTS  0.2470000D+00
MO    1     MO 0.0        OCC NO =    2.0000000  ORB. ENERGY =    0.000000
 -0.39830651D-01 -0.74237785D-01 -0.12588060D+00 -0.19050690D+00 -0.23764234D+00
 -0.20393248D+00 -0.78095307D-01  0.21906728D-03  0.23504482D-02  0.86641946D-02
  0.25333597D-01  0.30528216D-01 -0.36774471D-01 -0.26966879D-01  0.39707452D-02
  0.21531919D-02  0.16363587D+01  0.15867175D+01  0.10703902D+01 -0.25111233D+00
 -0.24349449D+00 -0.16425995D+00  0.48385432D+00  0.46917593D+00  0.31650331D+00
  0.36974776D+00 -0.52950455D-01  0.10610064D+00  0.61660453D-01 -0.54282786D-02
  0.12680320D-01  0.20232384D-02 -0.58347201D-04  0.24552279D-03  0.15868529D-01
 -0.27439145D-02 -0.13124615D-01 -0.15789287D-02 -0.63716806D-01  0.24441510D-01
  0.26795839D-02  0.12470250D-02 -0.39266089D-02 -0.62498450D-03 -0.17437270D-01
  0.35495389D-02 -0.17681035D-03  0.38171296D-03 -0.20490261D-03 -0.71595079D-04
 -0.12920781D-02 -0.95413036D-04 -0.95928468D-02 -0.98879469D-03  0.67759329D-04
  0.19882928D-01  0.28726149D-02 -0.66487810D-02  0.88956123D-02  0.93769137D-04
  0.64455030D-02 -0.91191170D-03 -0.50545361D-03 -0.48091333D-04  0.23590077D-03
  0.85445134D-03  0.20948637D-03 -0.19674021D-03  0.66190950D-03 -0.65212371D-04
 -0.51096210D-03  0.92233479D-04 -0.43785277D-02 -0.78968550D-02 -0.11643908D-01
 -0.67885533D-02 -0.11827159D-02 -0.54154133D-04  0.20787802D-01 -0.67176006D-02
  0.24236041D-02  0.11383497D-01 -0.28475659D-02  0.15252962D-02  0.18038555D-02
 -0.13537602D-03  0.31887077D-03  0.19333585D-03 -0.16747765D-02  0.14814406D-02
  0.10824310D-01  0.75297948D-02  0.47191262D-03  0.52295009D-04 -0.13233986D-03
  0.80044850D-04  0.10752869D-02  0.60864705D-03  0.17842098D-03 -0.17946512D-01
 -0.32367274D-01 -0.47725526D-01 -0.31138858D-01 -0.41618266D-02 -0.22026055D-05
  0.21219657D-01  0.13255473D-01 -0.74806989D-02  0.11606268D-01  0.51975013D-02
 -0.25081373D-02  0.18293070D-02  0.14728533D-04  0.25859910D-03  0.25096098D-02
 -0.24872543D-02 -0.22355529D-04 -0.10436003D-01  0.84139828D-02  0.67851373D-02
  0.90274958D-04 -0.81282202D-04 -0.89927564D-05 -0.10553174D-02  0.70935822D-03
  0.93983512D-04
MO    2     MO 0.0        OCC NO =    2.0000000  ORB. ENERGY =    0.000000
  0.57834023D-01  0.10779311D+00  0.18277837D+00  0.27661562D+00  0.34505618D+00
  0.29610954D+00  0.11339422D+00  0.24308290D-03  0.26081200D-02  0.96140213D-02
  0.28110834D-01  0.33874922D-01 -0.40805934D-01 -0.17304181D-01  0.26229322D-01
  0.64664102D-02 -0.68559751D+00 -0.66479897D+00 -0.44846945D+00 -0.61909304D+00
 -0.60031200D+00 -0.40496693D+00  0.12215556D+01  0.11844980D+01  0.79905538D+00
 -0.15491600D+00 -0.13054133D+00  0.26743040D+00 -0.25834344D-01 -0.13354787D-01
  0.32694544D-01 -0.84769141D-03 -0.14258006D-03  0.63061744D-03  0.35495968D-01
 -0.25048658D-02 -0.32991102D-01  0.66153562D-03  0.26695910D-01  0.59887014D-01
  0.56958534D-02  0.40554721D-02 -0.97513255D-02  0.26185446D-03  0.73058243D-02
  0.86966632D-02 -0.44839558D-03  0.95895996D-03 -0.51056438D-03  0.29996729D-04
  0.54135167D-03 -0.23633816D-03  0.40191872D-02 -0.25370930D-02  0.70545454D-03
 -0.83305000D-02  0.71107862D-02 -0.15398689D-01 -0.37270616D-02  0.50049278D-03
  0.13282326D-01  0.38207051D-03  0.21177370D-03 -0.11061687D-03  0.52354533D-03
 -0.35799590D-03  0.52240706D-03 -0.51275403D-03 -0.27732520D-03 -0.19055645D-03
 -0.10578819D-02 -0.38643755D-04 -0.80485493D-02 -0.14515890D-01 -0.21403671D-01
 -0.15566394D-01 -0.37032010D-02 -0.15194985D-03 -0.87096219D-02 -0.13592778D-01
  0.87806545D-02 -0.47694295D-02 -0.71071718D-02  0.42093965D-02 -0.75577490D-03
 -0.42241036D-03  0.78892235D-03  0.41842229D-03 -0.42668857D-02  0.38484634D-02
 -0.45351424D-02 -0.31548148D-02  0.15979196D-02  0.14261667D-03 -0.35169649D-03
  0.20907983D-03 -0.45052105D-03 -0.25500943D-03  0.43325433D-03 -0.41493674D-01
 -0.74835549D-01 -0.11034497D+00 -0.75736892D-01 -0.11091852D-01 -0.24748365D-04
 -0.88905594D-02  0.29902431D-01 -0.15436361D-01 -0.48627656D-02  0.12974397D-01
 -0.57900875D-02 -0.76643854D-03  0.12914687D-03  0.63029191D-03  0.61539933D-02
 -0.63116865D-02  0.15769326D-03  0.43724509D-02 -0.35252697D-02  0.16408316D-01
  0.23861702D-03 -0.22582286D-03 -0.12794165D-04  0.44215428D-03 -0.29720515D-03
  0.25104075D-03
MO    3     MO 0.0        OCC NO =    2.0000000  ORB. ENERGY =    0.000000
  0.73542240D-01  0.13707064D+00  0.23242254D+00  0.35174680D+00  0.43877640D+00
  0.37653543D+00  0.14419307D+00  0.44929515D-03  0.48206421D-02  0.17769795D-01
  0.51957837D-01  0.62611720D-01 -0.75422451D-01 -0.36932617D-01 -0.34912475D-02
  0.22150387D-02 -0.13491323D-01 -0.13082045D-01 -0.88250702D-02  0.12707209D+01
  0.12321718D+01  0.83121583D+00  0.56333141D+00  0.54624197D+00  0.36849161D+00
 -0.30484676D-02  0.27011903D+00  0.12549581D+00 -0.50837330D-03  0.28615386D-01
  0.15147263D-01 -0.16681039D-04  0.32944360D-03  0.30189859D-03  0.21589375D-01
 -0.96758289D-02 -0.11913546D-01  0.13017828D-04  0.52532736D-03 -0.11606991D+00
  0.42234426D-02  0.67216842D-04 -0.42906594D-02  0.51528236D-05  0.14376545D-03
 -0.19250629D-01 -0.15983666D-03  0.43935172D-03 -0.27951506D-03  0.59028154D-06
  0.10652825D-04  0.27993621D-05  0.79090357D-04  0.60839774D-02  0.12648666D-04
 -0.16392922D-03 -0.15150764D-01 -0.83795827D-02 -0.73341852D-04 -0.31011680D-02
  0.83416367D-02  0.75184586D-05  0.41673246D-05  0.83212544D-04  0.23225963D-03
 -0.70447139D-05 -0.11098080D-02 -0.35775768D-03 -0.54572600D-05  0.86017040D-03
 -0.33902122D-03 -0.76043941D-06 -0.47320563D-01 -0.85344584D-01 -0.12584054D+00
 -0.81360718D-01 -0.10338772D-01  0.91158929D-04 -0.17138965D-03 -0.30106498D-01
 -0.24204241D-01 -0.93853773D-04 -0.11047606D-01 -0.91125199D-02 -0.14872287D-04
  0.23250477D-03  0.20472698D-03  0.72317349D-02 -0.59392757D-02 -0.12924593D-02
 -0.89243425D-04 -0.62081067D-04 -0.20033605D-01  0.21889454D-03 -0.60189825D-04
 -0.15870472D-03 -0.88654420D-05 -0.50181259D-05 -0.65686481D-03  0.15534486D-01
  0.28017085D-01  0.41311175D-01  0.31222731D-01  0.38968569D-02 -0.14449034D-03
 -0.17495018D-03  0.27859972D-03  0.17104221D-01 -0.95690459D-04  0.22718383D-03
  0.80869557D-02 -0.15082128D-04  0.40647074D-03  0.50429450D-03 -0.32927580D-02
 -0.12087840D-02  0.45015420D-02  0.86041950D-04 -0.69370951D-04 -0.10361110D-01
 -0.18008565D-04 -0.28990347D-03  0.30791203D-03  0.87007990D-05 -0.58484615D-05
 -0.63260716D-03
MO    4     MO 0.0        OCC NO =    2.0000000  ORB. ENERGY =    0.000000
  0.39947975D+00  0.74456457D+00  0.12625139D+01  0.19106805D+01  0.23834233D+01
  0.20453318D+01  0.78325341D+00  0.12536273D-02  0.13450598D-01  0.49581439D-01
  0.14497322D+00  0.17469978D+00 -0.21044439D+00 -0.82284457D-01 -0.78927154D-01
 -0.74120315D-02  0.73977274D-01  0.71733071D-01  0.48390706D-01 -0.23360745D+00
 -0.22652065D+00 -0.15280949D+00 -0.59700005D+00 -0.57888923D+00 -0.39051525D+00
  0.16715731D-01 -0.49382546D-01 -0.12529701D+00  0.27875748D-02 -0.53511444D-02
 -0.18282986D-01  0.91467514D-04 -0.65338103D-04 -0.35484761D-03 -0.29748680D-02
 -0.11348440D-01  0.14323308D-01 -0.71380950D-04 -0.28805394D-02  0.21508148D-01
  0.22610783D-02 -0.62655276D-02  0.40044492D-02 -0.28254594D-04 -0.78831232D-03
  0.37561162D-02  0.34635414D-03 -0.57484152D-03  0.22848738D-03 -0.32367041D-05
 -0.58412874D-04  0.38557250D-04 -0.43367794D-03 -0.90416254D-03 -0.19389040D-02
  0.89887678D-03  0.25608433D-02  0.34624934D-02  0.40215703D-03  0.15164432D-03
  0.23542186D-02 -0.41226133D-04 -0.22850785D-04  0.18371584D-04 -0.21907521D-03
  0.38628438D-04  0.15833630D-03 -0.28149850D-03  0.29923916D-04 -0.21345106D-03
  0.93872412D-03  0.41697345D-05  0.36583614D-02  0.65980055D-02  0.97287552D-02
  0.22910916D-01  0.73621719D-02  0.99046948D-04  0.93978475D-03 -0.11646091D-02
 -0.70545284D-02  0.51463050D-03  0.50036184D-02 -0.37490164D-03  0.81549548D-04
  0.38136731D-03 -0.30242038D-03 -0.58051196D-03  0.18937102D-02 -0.13131983D-02
  0.48935048D-03  0.34041051D-03 -0.13987170D-03 -0.15822036D-03  0.20372635D-03
 -0.45505996D-04  0.48612078D-04  0.27516002D-04  0.92323897D-04 -0.72193236D-02
 -0.13020347D-01 -0.19198495D-01  0.36150590D-02  0.48782570D-02  0.13705327D-03
  0.95930825D-03  0.56766091D-02 -0.14809625D-01  0.52470164D-03 -0.31938374D-02
 -0.31686000D-02  0.82700174D-04 -0.49173377D-03 -0.33372376D-03  0.13161860D-02
  0.12443465D-02 -0.25605325D-02 -0.47179576D-03  0.38038330D-03  0.52722226D-02
 -0.11197369D-03  0.23489736D-03 -0.12292367D-03 -0.47709287D-04  0.32069001D-04
  0.10202145D-03
MO    5     MO 0.0        OCC NO =    2.0000000  ORB. ENERGY =    0.000000
  0.29888701D+00  0.55707625D+00  0.94460107D+00  0.14295533D+01  0.17832550D+01
  0.15302981D+01  0.58602288D+00 -0.10913934D-02 -0.11709935D-01 -0.43165024D-01
 -0.12621200D+00 -0.15209160D+00  0.18321044D+00  0.14834138D+00  0.67706686D-01
  0.58319923D-02  0.25517286D+00  0.24743184D+00  0.16691606D+00  0.81852550D-01
  0.79369440D-01  0.53542155D-01  0.38209703D+00  0.37050559D+00  0.24994088D+00
  0.57658259D-01  0.17417891D-01  0.81094587D-01  0.96152965D-02  0.19928643D-02
  0.12629199D-01  0.31550266D-03  0.27442489D-04  0.23870118D-03 -0.43865035D-02
  0.13644419D-01 -0.92579157D-02 -0.24621725D-03 -0.99359631D-02 -0.82051816D-02
 -0.23121037D-02  0.47193688D-02 -0.24072651D-02 -0.97459734D-04 -0.27191581D-02
 -0.15028710D-02 -0.17977022D-03  0.31858361D-03 -0.13881339D-03 -0.11164497D-04
 -0.20148593D-03 -0.34163100D-04 -0.14959032D-02  0.10803072D-03  0.20236666D-02
  0.31005327D-02 -0.85957063D-03 -0.18305221D-03  0.13871768D-02  0.53547846D-03
 -0.58879476D-02 -0.14220300D-03 -0.78820154D-04  0.10265938D-04 -0.30319945D-04
  0.13324266D-03 -0.44361806D-04 -0.53326491D-04  0.10321780D-03  0.13563993D-04
  0.14428633D-03  0.14382837D-04  0.28910751D-02  0.52141729D-02  0.76882950D-02
 -0.92342258D-02 -0.50462852D-02 -0.84876660D-04  0.32416383D-02  0.53030997D-02
  0.88153448D-02  0.17751362D-02 -0.28695097D-02  0.11553513D-02  0.28129222D-03
 -0.36506812D-03  0.17333553D-03  0.43504957D-03 -0.15873605D-02  0.11523109D-02
  0.16879368D-02  0.11741920D-02  0.24837618D-03  0.10527032D-03 -0.15851970D-03
  0.53249382D-04  0.16767964D-03  0.94912081D-04 -0.41597199D-04  0.65156552D-02
  0.11751252D-01  0.17327215D-01 -0.32012845D-02 -0.43210383D-02 -0.99741635D-04
  0.33089815D-02 -0.62932118D-02  0.11695248D-01  0.18098750D-02  0.24672475D-02
  0.18734389D-02  0.28526112D-03  0.41659039D-03  0.15854839D-03 -0.11463159D-03
 -0.14327459D-02  0.15473775D-02 -0.16273845D-02  0.13120718D-02 -0.15018345D-02
  0.93715193D-04 -0.16892470D-03  0.75209511D-04 -0.16456561D-03  0.11061692D-03
  0.87791560D-05
END DATA
 TOTAL ENERGY =    -76.464003220187 THE VIRIAL(-V/T)=   2.00758041
