 85
GAUSSIAN              5 MOL ORBITALS    126 PRIMITIVES        3 NUCLEI   B3LYP
  O    1    (CENTRE  1)   0.00000000  0.00000000  0.00815606  CHARGE =  8.0
  H    2    (CENTRE  2)   0.00000000 -1.44255835 -1.00281530  CHARGE =  1.0
  H    3    (CENTRE  3)   0.00000000  1.44255835 -1.00281530  CHARGE =  1.0
CENTRE ASSIGNMENTS    1  1  1  1  1  1  1  1  1  1  1  1  1  1  1  1  1  1  1  1
CENTRE ASSIGNMENTS    1  1  1  1  1  1  1  1  1  1  1  1  1  1  1  1  1  1  1  1
CENTRE ASSIGNMENTS    1  1  1  1  1  1  1  1  1  1  1  1  1  1  1  1  1  1  1  1
CENTRE ASSIGNMENTS    1  1  1  1  1  1  1  1  1  1  1  1  2  2  2  2  2  2  2  2
CENTRE ASSIGNMENTS    2  2  2  2  2  2  2  2  2  2  2  2  2  2  2  2  2  2  2  3
CENTRE ASSIGNMENTS    3  3  3  3  3  3  3  3  3  3  3  3  3  3  3  3  3  3  3  3
CENTRE ASSIGNMENTS    3  3  3  3  3  3
TYPE ASSIGNMENTS      1  1  1  1  1  1  1  1  1  1  1  1  1  1  1  1  2  2  2  3
TYPE ASSIGNMENTS      3  3  4  4  4  2  3  4  2  3  4  2  3  4  5  6  7  8  9 10
TYPE ASSIGNMENTS      5  6  7  8  9 10  5  6  7  8  9 10 11 12 13 17 14 15 18 19
TYPE ASSIGNMENTS     16 20 11 12 13 17 14 15 18 19 16 20  1  1  1  1  1  1  2  3
TYPE ASSIGNMENTS      4  2  3  4  2  3  4  5  6  7  8  9 10  5  6  7  8  9 10  1
TYPE ASSIGNMENTS      1  1  1  1  1  2  3  4  2  3  4  2  3  4  5  6  7  8  9 10
TYPE ASSIGNMENTS      5  6  7  8  9 10
EXPONENTS  0.1533000D+05 0.2299000D+04 0.5224000D+03 0.1473000D+03 0.4755000D+02
EXPONENTS  0.1676000D+02 0.6207000D+01 0.5224000D+03 0.1473000D+03 0.4755000D+02
EXPONENTS  0.1676000D+02 0.6207000D+01 0.6882000D+00 0.1752000D+01 0.2384000D+00
EXPONENTS  0.7376000D-01 0.3446000D+02 0.7749000D+01 0.2280000D+01 0.3446000D+02
EXPONENTS  0.7749000D+01 0.2280000D+01 0.3446000D+02 0.7749000D+01 0.2280000D+01
EXPONENTS  0.7156000D+00 0.7156000D+00 0.7156000D+00 0.2140000D+00 0.2140000D+00
EXPONENTS  0.2140000D+00 0.5974000D-01 0.5974000D-01 0.5974000D-01 0.2314000D+01
EXPONENTS  0.2314000D+01 0.2314000D+01 0.2314000D+01 0.2314000D+01 0.2314000D+01
EXPONENTS  0.6450000D+00 0.6450000D+00 0.6450000D+00 0.6450000D+00 0.6450000D+00
EXPONENTS  0.6450000D+00 0.2140000D+00 0.2140000D+00 0.2140000D+00 0.2140000D+00
EXPONENTS  0.2140000D+00 0.2140000D+00 0.1428000D+01 0.1428000D+01 0.1428000D+01
EXPONENTS  0.1428000D+01 0.1428000D+01 0.1428000D+01 0.1428000D+01 0.1428000D+01
EXPONENTS  0.1428000D+01 0.1428000D+01 0.5000000D+00 0.5000000D+00 0.5000000D+00
EXPONENTS  0.5000000D+00 0.5000000D+00 0.5000000D+00 0.5000000D+00 0.5000000D+00
EXPONENTS  0.5000000D+00 0.5000000D+00 0.3387000D+02 0.5095000D+01 0.1159000D+01
EXPONENTS  0.3258000D+00 0.1027000D+00 0.2526000D-01 0.1407000D+01 0.1407000D+01
EXPONENTS  0.1407000D+01 0.3880000D+00 0.3880000D+00 0.3880000D+00 0.1020000D+00
EXPONENTS  0.1020000D+00 0.1020000D+00 0.1057000D+01 0.1057000D+01 0.1057000D+01
EXPONENTS  0.1057000D+01 0.1057000D+01 0.1057000D+01 0.2470000D+00 0.2470000D+00
EXPONENTS  0.2470000D+00 0.2470000D+00 0.2470000D+00 0.2470000D+00 0.3387000D+02
EXPONENTS  0.5095000D+01 0.1159000D+01 0.3258000D+00 0.1027000D+00 0.2526000D-01
EXPONENTS  0.1407000D+01 0.1407000D+01 0.1407000D+01 0.3880000D+00 0.3880000D+00
EXPONENTS  0.3880000D+00 0.1020000D+00 0.1020000D+00 0.1020000D+00 0.1057000D+01
EXPONENTS  0.1057000D+01 0.1057000D+01 0.1057000D+01 0.1057000D+01 0.1057000D+01
EXPONENTS  0.2470000D+00 0.2470000D+00 0.2470000D+00 0.2470000D+00 0.2470000D+00
EXPONENTS  0.2470000D+00
MO    1     MO 0.0        OCC NO =    2.0000000  ORB. ENERGY =    0.000000
 -0.19043163D-01 -0.35493325D-01 -0.60183921D-01 -0.91081965D-01 -0.11361757D+00
 -0.97500780D-01 -0.37337619D-01 -0.39025371D-03 -0.41871662D-02 -0.15434683D-01
 -0.45130108D-01 -0.54383974D-01  0.65511260D-01  0.38253114D-01 -0.30295457D-01
 -0.69082990D-02 -0.68644799D-01 -0.66562364D-01 -0.44902578D-01 -0.40806683D+00
 -0.39568756D+00 -0.26692849D+00 -0.14389572D+01 -0.13953044D+01 -0.94126412D+00
 -0.15487755D-01 -0.81983787D-01 -0.31198382D+00 -0.25126469D-02 -0.64236369D-02
 -0.36314545D-01 -0.79102925D-04 -0.45836200D-04 -0.75791143D-03 -0.44773093D-01
  0.88625389D-02  0.35910554D-01  0.38996304D-14  0.28460664D-02  0.37358999D-01
 -0.59029243D-02 -0.48530532D-02  0.10755977D-01 -0.59808367D-14  0.68921860D-03
  0.37142507D-02  0.95337054D-03 -0.15529806D-02  0.59961005D-03 -0.21366187D-14
  0.41531533D-04 -0.60234769D-03  0.41548450D-03 -0.20560514D-02  0.25753857D-04
 -0.94911379D-03  0.36393560D-02  0.17766483D-01 -0.29733971D-03  0.25287981D-02
 -0.17843745D-01 -0.82522351D-14  0.75794730D-05 -0.48253137D-04 -0.66993308D-03
 -0.56035602D-05  0.13167099D-03 -0.17038655D-03 -0.17134859D-04  0.13088422D-04
  0.21801858D-02  0.58480849D-14  0.41514186D-01  0.74872544D-01  0.11039952D+00
  0.76499367D-01  0.93678836D-02  0.49400416D-04 -0.10164362D-02  0.39526254D-01
  0.11574355D-01 -0.55403836D-03  0.14712772D-01  0.24078224D-02 -0.84139204D-04
 -0.24492618D-04 -0.10969493D-02 -0.64593252D-02  0.96791200D-02 -0.32197948D-02
 -0.51119390D-03 -0.35174606D-03  0.15197318D-01  0.98416517D-05  0.10440412D-03
 -0.11424577D-03 -0.55856823D-04 -0.33060639D-04 -0.69874963D-03  0.19853960D-01
  0.35807434D-01  0.52798040D-01  0.35184922D-01  0.45555441D-02  0.96917152D-04
 -0.10164362D-02 -0.24577483D-01 -0.48315428D-02 -0.55403836D-03 -0.93359544D-02
 -0.38951690D-02 -0.84139204D-04 -0.44437633D-04 -0.12073687D-02 -0.19714187D-02
  0.63681722D-02 -0.43967535D-02  0.51119390D-03 -0.35174606D-03 -0.19790054D-02
 -0.28018592D-04  0.20184041D-03 -0.17382182D-03  0.55856823D-04 -0.33060639D-04
  0.94700905D-03
MO    2     MO 0.0        OCC NO =    2.0000000  ORB. ENERGY =    0.000000
  0.42446102D-01  0.79112556D-01  0.13414646D+00  0.20301640D+00  0.25324695D+00
  0.21732356D+00  0.83223379D-01 -0.62351569D-04 -0.66899142D-03 -0.24660283D-02
 -0.72105222D-02 -0.86890299D-02  0.10466857D-01  0.11478945D-01 -0.11102495D-01
 -0.21744262D-02 -0.56276511D-02 -0.54569286D-02 -0.36812118D-02  0.14148240D+01
  0.13719034D+01  0.92547790D+00 -0.42768044D+00 -0.41470616D+00 -0.27975833D+00
 -0.12697201D-02  0.28424910D+00 -0.92670034D-01 -0.20599230D-03  0.22271636D-01
 -0.10965977D-01 -0.64850313D-05  0.15892043D-03 -0.22895838D-03 -0.12902621D-01
  0.21822232D-02  0.10720398D-01  0.15855097D-14  0.23332676D-03 -0.12952880D+00
 -0.16133447D-02 -0.15789316D-02  0.31922763D-02  0.15978803D-15  0.56503652D-04
 -0.12877820D-01  0.27909651D-03 -0.45714457D-03  0.17804806D-03  0.59278064D-16
  0.34048461D-05  0.20884225D-02  0.34062330D-04  0.71286137D-02  0.13131704D-04
 -0.77810430D-04 -0.12618149D-01  0.52610931D-02 -0.24376561D-04 -0.87676920D-02
 -0.53004882D-02 -0.65970365D-15  0.62138182D-06  0.16730029D-03 -0.20247989D-03
 -0.45939215D-06 -0.45652149D-03 -0.71824830D-04 -0.14047533D-05 -0.45379364D-04
  0.67926449D-03  0.38646865D-15 -0.29051985D-01 -0.52396451D-01 -0.77258537D-01
 -0.55642746D-01 -0.62204858D-02  0.10631026D-03 -0.83329671D-04 -0.17177280D-01
 -0.28029034D-01 -0.45421280D-04 -0.58950079D-02 -0.11300621D-01 -0.68979165D-05
  0.12989987D-03 -0.53724193D-03  0.67268091D-02 -0.35357514D-02 -0.31910577D-02
 -0.41908797D-04 -0.28836913D-04 -0.20939891D-01 -0.70496360D-04  0.21908675D-03
 -0.14859039D-03 -0.45792648D-05 -0.27103837D-05 -0.67382394D-03  0.46047008D-01
  0.83047675D-01  0.12245375D+00  0.87600135D-01  0.10464559D-01 -0.58436816D-04
 -0.83329671D-04 -0.34652170D-01  0.28852477D-01 -0.45421280D-04 -0.12747161D-01
  0.10552719D-01 -0.68979165D-05  0.10909082D-03 -0.15440253D-03 -0.88333818D-02
  0.79437614D-02  0.88962042D-03  0.41908797D-04 -0.28836913D-04 -0.24889823D-01
  0.60770327D-04 -0.11873830D-03  0.57967977D-04  0.45792648D-05 -0.27103837D-05
 -0.18692570D-03
MO    3     MO 0.0        OCC NO =    2.0000000  ORB. ENERGY =    0.000000
  0.50599827D+00  0.94309757D+00  0.15991545D+01  0.24201502D+01  0.30189467D+01
  0.25907054D+01  0.99210253D+00  0.48611994D-03  0.52157480D-02  0.19226229D-01
  0.56216366D-01  0.67743454D-01 -0.81604170D-01  0.92247841D-02 -0.22200957D-01
 -0.16659400D-02  0.52308908D-01  0.50722045D-01  0.34216792D-01 -0.13446817D+00
 -0.13038890D+00 -0.87959579D-01 -0.11296806D+00 -0.10954101D+00 -0.73895721D-01
  0.11802024D-01 -0.27015698D-01 -0.23954599D-01  0.19146945D-02 -0.21167482D-02
 -0.45250523D-02  0.60278240D-04 -0.15104169D-04 -0.95712510D-04  0.69481646D-04
 -0.33097039D-02  0.32402223D-02 -0.21964897D-14 -0.21687677D-02  0.12310720D-01
  0.88202540D-03 -0.16885959D-02  0.80657048D-03  0.13305908D-14 -0.52520035D-03
  0.12239380D-02  0.34423430D-04 -0.81090892D-04  0.46667462D-04 -0.71486201D-16
 -0.31647979D-04 -0.19848855D-03 -0.31660870D-03 -0.67752008D-03  0.12842962D-03
  0.72324643D-03  0.11992583D-02  0.13587109D-02  0.22657967D-03  0.83330191D-03
 -0.17439998D-02 -0.15062781D-15 -0.57757319D-05 -0.15900609D-04 -0.10203143D-03
  0.42700411D-05  0.43388868D-04 -0.24183286D-03  0.13057155D-04  0.43129606D-05
  0.54792714D-03  0.77385954D-15  0.20437869D-04  0.36860539D-04  0.54350844D-04
  0.51103106D-02  0.18025629D-02  0.18359241D-04  0.77454767D-03 -0.26858279D-02
 -0.27333193D-02  0.42218991D-03  0.30297824D-03 -0.54979195D-03  0.64116000D-04
  0.53332895D-04 -0.11003089D-03  0.96860119D-03 -0.68923184D-03 -0.27936935D-03
  0.38954145D-03  0.26803855D-03 -0.30050831D-02 -0.12792563D-04  0.39136118D-04
 -0.26343555D-04  0.42564177D-04  0.25192964D-04 -0.19716325D-04 -0.71171456D-02
 -0.12836065D-01 -0.18926771D-01 -0.85038270D-02  0.21677730D-03  0.34017188D-04
  0.77454767D-03  0.76118197D-02 -0.81394707D-02  0.42218991D-03  0.14688170D-02
 -0.26267844D-02  0.64116000D-04 -0.76047128D-04 -0.14641684D-03  0.24474780D-02
 -0.17802715D-02 -0.66720652D-03 -0.38954145D-03  0.26803855D-03  0.73608461D-02
 -0.25268455D-04  0.71243799D-04 -0.45975344D-04 -0.42564177D-04  0.25192964D-04
  0.10152398D-03
MO    4     MO 0.0        OCC NO =    2.0000000  ORB. ENERGY =    0.000000
 -0.71121989D-02 -0.13255969D-01 -0.22477359D-01 -0.34017092D-01 -0.42433642D-01
 -0.36414377D-01 -0.13944772D-01 -0.46650070D-03 -0.50052464D-02 -0.18450281D-01
 -0.53947538D-01 -0.65009407D-01  0.78310720D-01  0.47287329D-01  0.26014471D-01
  0.21499484D-02  0.17187274D+01  0.16665874D+01  0.11242700D+01 -0.60207207D-02
 -0.58380738D-02 -0.39383301D-02  0.12173958D+00  0.11804644D+00  0.79633431D-01
  0.38778216D+00 -0.12096094D-02  0.25817994D-01  0.62911614D-01 -0.94775957D-04
  0.45811763D-02  0.19805778D-02 -0.67627885D-06  0.92450851D-04 -0.31117847D-02
  0.69285354D-02 -0.38167507D-02 -0.35034672D-14 -0.71259765D-01  0.55120408D-03
 -0.95328091D-03  0.17593206D-02 -0.80603971D-03  0.39112533D-14 -0.17256645D-01
  0.54800991D-04 -0.34807142D-04  0.72152347D-04 -0.37345206D-04  0.24200633D-14
 -0.10398659D-02 -0.88871894D-05 -0.10402894D-01 -0.30335499D-04  0.68147617D-03
  0.23763896D-01  0.53695974D-04  0.18035063D-03  0.74447870D-02  0.37310524D-04
 -0.22247791D-02  0.34957676D-14 -0.18977473D-03 -0.71193894D-06 -0.81727736D-04
  0.14030185D-03  0.19427070D-05 -0.31463476D-04  0.42902232D-03  0.19310987D-06
  0.27664668D-03 -0.22666062D-14  0.37362035D-02  0.67383969D-02  0.99357623D-02
  0.11875021D-03 -0.15110046D-02 -0.33755747D-04  0.25449514D-01  0.40965723D-02
  0.51946605D-02  0.13872004D-01 -0.63379177D-03  0.96836860D-03  0.21066761D-02
 -0.14822694D-03  0.78091717D-04 -0.37680620D-03 -0.20134969D-03  0.57815588D-03
  0.12799265D-01  0.88070123D-02  0.18286992D-02  0.46221707D-04 -0.74707226D-04
  0.28485518D-04  0.13985422D-02  0.82777175D-03 -0.72683137D-05  0.34166231D-02
  0.61620204D-02  0.90858955D-02 -0.49081351D-03 -0.15820071D-02 -0.33054673D-04
  0.25449514D-01 -0.38760144D-02  0.49526038D-02  0.13872004D-01  0.71312270D-03
  0.87537268D-03  0.21066761D-02  0.14720992D-03  0.76462561D-04 -0.31059049D-03
 -0.25020024D-03  0.56079074D-03 -0.12799265D-01  0.88070123D-02 -0.16336729D-02
  0.45663108D-04 -0.73269626D-04  0.27606519D-04 -0.13985422D-02  0.82777175D-03
  0.10931196D-04
MO    5     MO 0.0        OCC NO =    2.0000000  ORB. ENERGY =    0.000000
  0.31530168D-01  0.58767048D-01  0.99647789D-01  0.15080633D+00  0.18811901D+00
  0.16143410D+00  0.61820684D-01 -0.15427144D-02 -0.16552313D-01 -0.61014943D-01
 -0.17840411D+00 -0.21498563D+00  0.25897298D+00  0.16280465D+00  0.94085403D-01
  0.84309419D-02 -0.48565007D+00 -0.47091720D+00 -0.31767796D+00  0.54929850D-02
  0.53263477D-02  0.35931227D-02  0.62701870D+00  0.60799722D+00  0.41015134D+00
 -0.10957318D+00  0.11035832D-02  0.13396196D+00 -0.17776542D-01  0.86468536D-04
  0.20985501D-01 -0.55963950D-03  0.61700078D-06  0.42665776D-03 -0.45271768D-02
  0.22885797D-01 -0.18358620D-01  0.38813667D-14  0.20135427D-01 -0.50288925D-03
 -0.24256309D-02  0.67486585D-02 -0.43230276D-02 -0.10069209D-14  0.48761023D-02
 -0.49997505D-04 -0.25746506D-03  0.47141995D-03 -0.21395489D-03 -0.11352688D-14
  0.29382840D-03  0.81081984D-05  0.29394809D-02  0.27676494D-04  0.24218014D-02
 -0.67148157D-02 -0.48989347D-04 -0.17875793D-02 -0.21036270D-02 -0.34040136D-04
 -0.54778249D-02 -0.82499378D-14  0.53623459D-04  0.64953517D-06 -0.20318734D-03
 -0.39644218D-04 -0.17724224D-05 -0.11248180D-03 -0.12122616D-03 -0.17618315D-06
  0.72204381D-03  0.19199229D-14  0.76934940D-02  0.13875533D-01  0.20459466D-01
 -0.91974284D-02 -0.64053625D-02 -0.12569942D-03 -0.71911103D-02  0.88207426D-02
  0.16778432D-01 -0.39197255D-02 -0.42216551D-02  0.31584760D-02 -0.59527030D-03
 -0.51687762D-03  0.42579228D-03 -0.39414741D-03 -0.21139531D-02  0.25081005D-02
 -0.36166083D-02 -0.24885425D-02  0.42427016D-02  0.16162769D-03 -0.27747125D-03
  0.11584356D-03 -0.39517735D-03 -0.23389830D-03  0.78727437D-04  0.79850622D-02
  0.14401389D-01  0.21234839D-01 -0.86412949D-02 -0.63405836D-02 -0.12633905D-03
 -0.71911103D-02 -0.90219679D-02  0.16999272D-01 -0.39197255D-02  0.41492777D-02
  0.32433205D-02 -0.59527030D-03  0.51780549D-03  0.42727864D-03 -0.45455909D-03
 -0.20693844D-02  0.25239435D-02  0.36166083D-02 -0.24885425D-02 -0.44206333D-02
  0.16213733D-03 -0.27878284D-03  0.11664551D-03  0.39517735D-03 -0.23389830D-03
 -0.82069255D-04
END DATA
 TOTAL ENERGY =    -76.464152513367 THE VIRIAL(-V/T)=   2.00450102
