 85
GAUSSIAN              5 MOL ORBITALS    126 PRIMITIVES        3 NUCLEI   B3LYP
  O    1    (CENTRE  1)   0.00000000  0.00000000  0.00815606  CHARGE =  8.0
  H    2    (CENTRE  2)   0.00000000 -1.44255835 -1.00281530  CHARGE =  1.0
  H    3    (CENTRE  3)   0.00000000  1.44255835 -1.19178791  CHARGE =  1.0
CENTRE ASSIGNMENTS    1  1  1  1  1  1  1  1  1  1  1  1  1  1  1  1  1  1  1  1
CENTRE ASSIGNMENTS    1  1  1  1  1  1  1  1  1  1  1  1  1  1  1  1  1  1  1  1
CENTRE ASSIGNMENTS    1  1  1  1  1  1  1  1  1  1  1  1  1  1  1  1  1  1  1  1
CENTRE ASSIGNMENTS    1  1  1  1  1  1  1  1  1  1  1  1  2  2  2  2  2  2  2  2
CENTRE ASSIGNMENTS    2  2  2  2  2  2  2  2  2  2  2  2  2  2  2  2  2  2  2  3
CENTRE ASSIGNMENTS    3  3  3  3  3  3  3  3  3  3  3  3  3  3  3  3  3  3  3  3
CENTRE ASSIGNMENTS    3  3  3  3  3  3
TYPE ASSIGNMENTS      1  1  1  1  1  1  1  1  1  1  1  1  1  1  1  1  2  2  2  3
TYPE ASSIGNMENTS      3  3  4  4  4  2  3  4  2  3  4  2  3  4  5  6  7  8  9 10
TYPE ASSIGNMENTS      5  6  7  8  9 10  5  6  7  8  9 10 11 12 13 17 14 15 18 19
TYPE ASSIGNMENTS     16 20 11 12 13 17 14 15 18 19 16 20  1  1  1  1  1  1  2  3
TYPE ASSIGNMENTS      4  2  3  4  2  3  4  5  6  7  8  9 10  5  6  7  8  9 10  1
TYPE ASSIGNMENTS      1  1  1  1  1  2  3  4  2  3  4  2  3  4  5  6  7  8  9 10
TYPE ASSIGNMENTS      5  6  7  8  9 10
EXPONENTS  0.1533000D+05 0.2299000D+04 0.5224000D+03 0.1473000D+03 0.4755000D+02
EXPONENTS  0.1676000D+02 0.6207000D+01 0.5224000D+03 0.1473000D+03 0.4755000D+02
EXPONENTS  0.1676000D+02 0.6207000D+01 0.6882000D+00 0.1752000D+01 0.2384000D+00
EXPONENTS  0.7376000D-01 0.3446000D+02 0.7749000D+01 0.2280000D+01 0.3446000D+02
EXPONENTS  0.7749000D+01 0.2280000D+01 0.3446000D+02 0.7749000D+01 0.2280000D+01
EXPONENTS  0.7156000D+00 0.7156000D+00 0.7156000D+00 0.2140000D+00 0.2140000D+00
EXPONENTS  0.2140000D+00 0.5974000D-01 0.5974000D-01 0.5974000D-01 0.2314000D+01
EXPONENTS  0.2314000D+01 0.2314000D+01 0.2314000D+01 0.2314000D+01 0.2314000D+01
EXPONENTS  0.6450000D+00 0.6450000D+00 0.6450000D+00 0.6450000D+00 0.6450000D+00
EXPONENTS  0.6450000D+00 0.2140000D+00 0.2140000D+00 0.2140000D+00 0.2140000D+00
EXPONENTS  0.2140000D+00 0.2140000D+00 0.1428000D+01 0.1428000D+01 0.1428000D+01
EXPONENTS  0.1428000D+01 0.1428000D+01 0.1428000D+01 0.1428000D+01 0.1428000D+01
EXPONENTS  0.1428000D+01 0.1428000D+01 0.5000000D+00 0.5000000D+00 0.5000000D+00
EXPONENTS  0.5000000D+00 0.5000000D+00 0.5000000D+00 0.5000000D+00 0.5000000D+00
EXPONENTS  0.5000000D+00 0.5000000D+00 0.3387000D+02 0.5095000D+01 0.1159000D+01
EXPONENTS  0.3258000D+00 0.1027000D+00 0.2526000D-01 0.1407000D+01 0.1407000D+01
EXPONENTS  0.1407000D+01 0.3880000D+00 0.3880000D+00 0.3880000D+00 0.1020000D+00
EXPONENTS  0.1020000D+00 0.1020000D+00 0.1057000D+01 0.1057000D+01 0.1057000D+01
EXPONENTS  0.1057000D+01 0.1057000D+01 0.1057000D+01 0.2470000D+00 0.2470000D+00
EXPONENTS  0.2470000D+00 0.2470000D+00 0.2470000D+00 0.2470000D+00 0.3387000D+02
EXPONENTS  0.5095000D+01 0.1159000D+01 0.3258000D+00 0.1027000D+00 0.2526000D-01
EXPONENTS  0.1407000D+01 0.1407000D+01 0.1407000D+01 0.3880000D+00 0.3880000D+00
EXPONENTS  0.3880000D+00 0.1020000D+00 0.1020000D+00 0.1020000D+00 0.1057000D+01
EXPONENTS  0.1057000D+01 0.1057000D+01 0.1057000D+01 0.1057000D+01 0.1057000D+01
EXPONENTS  0.2470000D+00 0.2470000D+00 0.2470000D+00 0.2470000D+00 0.2470000D+00
EXPONENTS  0.2470000D+00
MO    1     MO 0.0        OCC NO =    2.0000000  ORB. ENERGY =    0.000000
 -0.13033575D+00 -0.24292441D+00 -0.41191248D+00 -0.62338573D+00 -0.77762457D+00
 -0.66731757D+00 -0.25554718D+00 -0.61990567D-03 -0.66511811D-02 -0.24517506D-01
 -0.71687749D-01 -0.86387223D-01  0.10406256D+00  0.48245941D-01 -0.15786998D-01
 -0.60287180D-02  0.11037539D+00  0.10702700D+00  0.72199781D-01 -0.83049880D-01
 -0.80530447D-01 -0.54325364D-01 -0.13467049D+01 -0.13058507D+01 -0.88091918D+00
  0.24918873D-01 -0.12732648D-01 -0.29369824D+00  0.40962587D-02  0.70159918D-03
 -0.33819047D-01  0.13129201D-03  0.33846718D-05 -0.66342036D-03 -0.44712388D-01
  0.90683871D-02  0.35644001D-01 -0.50830336D-03 -0.45015744D-02  0.87306818D-02
 -0.70128372D-02 -0.37928744D-02  0.10805712D-01 -0.24150252D-04 -0.11581700D-02
 -0.13551129D-02  0.71090245D-03 -0.12784725D-02  0.56757003D-03  0.99571444D-05
 -0.77394129D-04 -0.62187123D-03 -0.65915865D-03 -0.42481141D-03 -0.64047343D-03
  0.13881635D-02 -0.36525809D-03  0.17936941D-01  0.58931246D-03  0.16396923D-02
 -0.16015521D-01 -0.19044256D-04 -0.23077311D-04 -0.89459367D-04 -0.67982167D-03
  0.31564457D-04 -0.28525362D-03  0.29289864D-03  0.37667475D-04  0.55363172D-03
  0.17465664D-02 -0.53158333D-04  0.33591051D-01  0.60582844D-01  0.89329368D-01
  0.58759745D-01  0.67169398D-02  0.61856259D-04  0.16435052D-02  0.35603586D-01
  0.75014735D-02  0.89258160D-03  0.12652831D-01  0.50938581D-03  0.13501891D-03
 -0.11607852D-04 -0.98898612D-03 -0.52451963D-02  0.86280790D-02 -0.33828827D-02
  0.83591265D-03  0.56772217D-03  0.11778665D-01  0.20170629D-04  0.12223155D-03
 -0.14240218D-03  0.88662630D-04  0.52053524D-04 -0.70767905D-03  0.30657721D-01
  0.55292462D-01  0.81528703D-01  0.51548946D-01  0.70991946D-02  0.72906840D-04
  0.14247441D-02 -0.27533545D-01  0.68336641D-02  0.77820101D-03 -0.10908942D-01
  0.13287973D-02  0.12251930D-03 -0.17593726D-03 -0.84833523D-03 -0.38673975D-02
  0.59341611D-02 -0.20667636D-02 -0.69548289D-03  0.55776266D-03 -0.92142975D-02
 -0.18010842D-03  0.23712260D-03 -0.57014183D-04 -0.71625674D-04  0.46623373D-04
  0.17726053D-03
MO    2     MO 0.0        OCC NO =    2.0000000  ORB. ENERGY =    0.000000
  0.45566864D+00  0.84929143D+00  0.14400930D+01  0.21794276D+01  0.27186641D+01
  0.23330183D+01  0.89342205D+00  0.64762853D-03  0.69486291D-02  0.25613955D-01
  0.74893703D-01  0.90250553D-01 -0.10871636D+00 -0.13535404D-01 -0.45748765D-01
 -0.50188713D-02  0.34080159D-01  0.33046290D-01  0.22292832D-01  0.38087479D+00
  0.36932043D+00  0.24914138D+00 -0.59985928D+00 -0.58166172D+00 -0.39238556D+00
  0.76940988D-02  0.77813092D-01 -0.12913244D+00  0.12647851D-02  0.70655739D-02
 -0.17760295D-01  0.40538500D-04  0.55062077D-04 -0.34363999D-03 -0.10188821D-01
 -0.71540316D-02  0.17342853D-01 -0.15694676D-03 -0.13899328D-02 -0.33884218D-01
 -0.29435638D-03 -0.41899922D-02  0.44843486D-02 -0.74567748D-05 -0.35760345D-03
 -0.35916883D-02  0.24318040D-03 -0.46787380D-03  0.22469340D-03  0.30744269D-05
 -0.23896670D-04  0.29203636D-03 -0.20352573D-03  0.18091514D-02 -0.70852613D-03
  0.42861759D-03 -0.34133857D-02  0.62835790D-02  0.18195961D-03 -0.20140686D-02
 -0.41580006D-02 -0.58802173D-05 -0.71254873D-05  0.20063756D-04 -0.22896724D-03
  0.97460290D-05 -0.23576106D-03 -0.11976674D-03  0.11630433D-04  0.17556979D-03
  0.80666847D-03 -0.16413482D-04 -0.70459571D-02 -0.12707674D-01 -0.18737458D-01
 -0.46475264D-02  0.16960805D-02  0.93849499D-04  0.50745840D-03 -0.48599005D-02
 -0.15172288D-01  0.27559879D-03  0.97505187D-03 -0.52194085D-02  0.41689240D-04
  0.21381696D-03 -0.51324610D-03  0.25978931D-02 -0.13166696D-03 -0.24662262D-02
  0.25810134D-03  0.17529326D-03 -0.94410466D-02 -0.43467484D-04  0.16538735D-03
 -0.12191986D-03  0.27375999D-04  0.16072354D-04 -0.36155600D-03  0.14302800D-01
  0.25795690D-01  0.38035729D-01  0.34862148D-01  0.71361144D-02  0.51648482D-04
  0.43991244D-03 -0.78700702D-02  0.18618883D-02  0.24028196D-03 -0.60865216D-02
  0.21485489D-02  0.37829786D-04 -0.24929382D-03 -0.27741412D-03 -0.19690049D-02
  0.24890771D-02 -0.52007224D-03 -0.21474142D-03  0.17221810D-03 -0.45892900D-02
 -0.15168323D-03  0.15152721D-03  0.15601795D-06 -0.22115568D-04  0.14395709D-04
 -0.18892801D-03
MO    3     MO 0.0        OCC NO =    2.0000000  ORB. ENERGY =    0.000000
  0.12958447D-01  0.24152414D-01  0.40953813D-01  0.61979240D-01  0.77314217D-01
  0.66347101D-01  0.25407415D-01 -0.11886999D-02 -0.12753970D-01 -0.47013534D-01
 -0.13746482D+00 -0.16565179D+00  0.19954513D+00  0.12361941D+00  0.80550843D-01
  0.73943085D-02  0.55530390D+00  0.53845799D+00  0.36324058D+00  0.89197072D+00
  0.86491155D+00  0.58346422D+00  0.55521854D+00  0.53837522D+00  0.36318474D+00
  0.12536805D+00  0.18500305D+00  0.11593747D+00  0.20608475D-01  0.17568740D-01
  0.16226668D-01  0.66053644D-03  0.17770010D-03  0.32061025D-03  0.14079465D-02
  0.10047688D-01 -0.11455635D-01 -0.25572987D-02 -0.22647638D-01 -0.82835846D-01
 -0.21837378D-02  0.56580693D-02 -0.34743315D-02 -0.12150108D-03 -0.58268093D-02
 -0.12156142D-01 -0.45653112D-03  0.65415075D-03 -0.19761963D-03  0.50094874D-04
 -0.38937359D-03  0.59037294D-03 -0.33162589D-02  0.38622624D-02  0.23557696D-02
  0.69839174D-02 -0.91390458D-02 -0.19956022D-02  0.29648594D-02 -0.24477415D-02
 -0.50717067D-02 -0.95812569D-04 -0.11610306D-03  0.74351152D-04  0.90860817D-04
  0.15880231D-03 -0.59996338D-03  0.20123407D-03  0.18950688D-03  0.37690993D-03
 -0.47381653D-03 -0.26744214D-03 -0.19510699D-01 -0.35188349D-01 -0.51885200D-01
 -0.55383784D-01 -0.10389517D-01 -0.36782676D-04  0.82685538D-02 -0.99390105D-02
 -0.53132064D-02  0.44906211D-02 -0.89887500D-02 -0.44599064D-02  0.67928667D-03
 -0.13261183D-03  0.28790945D-03  0.44556159D-02 -0.47613293D-02  0.30571336D-03
  0.42055168D-02  0.28562376D-02 -0.10936242D-01  0.68867485D-04 -0.24330212D-04
 -0.44537273D-04  0.44606597D-03  0.26188379D-03 -0.85355527D-04  0.23950342D-01
  0.43195428D-01  0.63691633D-01  0.27297013D-01 -0.71910663D-03 -0.18217215D-03
  0.71679564D-02 -0.13600819D-01  0.26262245D-01  0.39151668D-02  0.20037384D-03
  0.80284563D-02  0.61640052D-03  0.57157387D-03  0.42939117D-03 -0.37309765D-02
 -0.61035064D-03  0.43413271D-02 -0.34990079D-02  0.28061308D-02 -0.12490025D-01
  0.50433523D-04 -0.27623155D-03  0.22579803D-03 -0.36035222D-03  0.23456444D-03
 -0.47395562D-03
MO    4     MO 0.0        OCC NO =    2.0000000  ORB. ENERGY =    0.000000
 -0.14347831D+00 -0.26741998D+00 -0.45344816D+00 -0.68624558D+00 -0.85603727D+00
 -0.73460733D+00 -0.28131558D+00  0.37846670D-03  0.40606993D-02  0.14968502D-01
  0.43767023D-01  0.52741390D-01 -0.63532594D-01 -0.56873533D-01 -0.20613424D-01
 -0.19772031D-02 -0.10436295D+01 -0.10119696D+01 -0.68266870D+00  0.10209627D+01
  0.98999043D+00  0.66784169D+00 -0.20354935D+00 -0.19737440D+00 -0.13314761D+00
 -0.23561477D+00  0.21125643D+00 -0.46111290D-01 -0.38731248D-01  0.19758248D-01
 -0.77450506D-02 -0.12414019D-02  0.19774381D-03 -0.13697104D-03  0.20702213D-02
 -0.11386502D-01  0.93162805D-02  0.48061475D-02  0.42563619D-01 -0.95476601D-01
  0.26025658D-04 -0.17030680D-02  0.16770423D-02  0.22834724D-03  0.10950815D-01
 -0.12309802D-01 -0.13230196D-03  0.70910256D-04  0.61391702D-04 -0.94147528D-04
  0.73178268D-03  0.70529941D-03  0.62325256D-02  0.48660475D-02 -0.50130753D-03
 -0.13125466D-01 -0.10763097D-01  0.11668992D-02 -0.55721107D-02 -0.38350457D-02
  0.33702339D-03  0.18006865D-03  0.21820229D-03  0.42295030D-04  0.13699991D-03
 -0.29845059D-03 -0.52377031D-03  0.33684016D-03 -0.35615629D-03  0.39688522D-03
 -0.74783988D-03  0.50262660D-03 -0.28629722D-01 -0.51634883D-01 -0.76135605D-01
 -0.47327038D-01 -0.37484132D-02  0.11840476D-03 -0.15539792D-01 -0.18984715D-01
 -0.24881468D-01 -0.84396035D-02 -0.43914112D-02 -0.84739117D-02 -0.12766408D-02
  0.42503206D-03 -0.19846157D-03  0.50318658D-02 -0.24703112D-02 -0.25615545D-02
 -0.79037831D-02 -0.53679686D-02 -0.15818102D-01 -0.77131165D-04  0.24563307D-03
 -0.16850190D-03 -0.83832945D-03 -0.49218032D-03 -0.22587048D-03  0.24767575D-01
  0.44669342D-01  0.65864918D-01  0.49907686D-01  0.77823306D-02 -0.55327907D-04
 -0.13471346D-01 -0.11233306D-01  0.14284022D-01 -0.73581037D-02 -0.59389966D-02
  0.69129848D-02 -0.11584536D-02  0.19642245D-06  0.65274649D-04 -0.47917699D-02
  0.25695394D-02  0.22222305D-02  0.65759812D-02 -0.52737987D-02 -0.13641203D-01
 -0.13912691D-03 -0.11281062D-05  0.14025502D-03  0.67724036D-03 -0.44083677D-03
 -0.56742033D-03
MO    5     MO 0.0        OCC NO =    2.0000000  ORB. ENERGY =    0.000000
 -0.11790441D+00 -0.21975443D+00 -0.37262453D+00 -0.56392760D+00 -0.70345523D+00
 -0.60366924D+00 -0.23117325D+00  0.82151010D-03  0.88142643D-02  0.32491038D-01
  0.95001888D-01  0.11448189D+00 -0.13790557D+00 -0.99099396D-01 -0.46945733D-01
 -0.39777634D-02  0.13407258D+01  0.13000530D+01  0.87700807D+00  0.42244167D+00
  0.40962632D+00  0.27633150D+00 -0.26228985D+00 -0.25433293D+00 -0.17157149D+00
  0.30268863D+00  0.86888780D-01 -0.56451308D-01  0.49757103D-01  0.78659383D-02
 -0.95139750D-02  0.15947992D-02  0.78646667D-04 -0.17605879D-03  0.49682716D-02
 -0.13589599D-01  0.86213278D-02 -0.61743422D-02 -0.54680458D-01 -0.39867962D-01
  0.15095373D-02 -0.32503921D-02  0.17408547D-02 -0.29335221D-03 -0.14068249D-01
 -0.43443207D-02  0.21395517D-04 -0.98596836D-04  0.77201319D-04  0.12094907D-03
 -0.94010362D-03  0.34826028D-03 -0.80067758D-02  0.21770701D-02 -0.12952002D-02
  0.16861971D-01 -0.44760037D-02  0.98479480D-04  0.71583566D-02 -0.20552066D-02
  0.37871210D-02 -0.23132987D-03 -0.28031924D-03  0.89825928D-05  0.13079528D-03
  0.38341230D-03 -0.12973600D-03  0.15778256D-03  0.45754543D-03  0.10278823D-03
 -0.55016840D-03 -0.64571231D-03 -0.16790872D-01 -0.30283028D-01 -0.44652308D-01
 -0.18619993D-01  0.78927177D-03  0.99923831D-04  0.19963597D-01 -0.13468803D-01
 -0.17399155D-01  0.10842156D-01 -0.76175871D-03 -0.46581983D-02  0.16400698D-02
  0.38129362D-03 -0.17926586D-03  0.24371776D-02 -0.65781190D-03 -0.17793657D-02
  0.10153800D-01  0.68961003D-02 -0.85130183D-02 -0.89118677D-04  0.18701274D-03
 -0.97894065D-04  0.10769817D-02  0.63229223D-03 -0.73016135D-04  0.64719835D-02
  0.11672489D-01  0.17211078D-01  0.22412603D-01  0.55898205D-02  0.25069825D-04
  0.17306314D-01 -0.64411615D-03 -0.36847296D-03  0.94527789D-02 -0.36531499D-02
  0.18918653D-02  0.14882374D-02 -0.21576157D-03 -0.50144775D-04 -0.18162083D-02
  0.17011412D-02  0.11506713D-03 -0.84480050D-02  0.67751224D-02 -0.45700380D-02
 -0.11050280D-03  0.90159050D-04  0.20343755D-04 -0.87003442D-03  0.56633240D-03
 -0.25517053D-03
END DATA
 TOTAL ENERGY =    -76.464426079647 THE VIRIAL(-V/T)=   2.00589229
