 85
GAUSSIAN              5 MOL ORBITALS    126 PRIMITIVES        3 NUCLEI   B3LYP
  O    1    (CENTRE  1)   0.00000000  0.00000000  0.00815606  CHARGE =  8.0
  H    2    (CENTRE  2)   0.00000000 -1.44255835 -1.19178791  CHARGE =  1.0
  H    3    (CENTRE  3)   0.00000000  1.44255835 -1.19178791  CHARGE =  1.0
CENTRE ASSIGNMENTS    1  1  1  1  1  1  1  1  1  1  1  1  1  1  1  1  1  1  1  1
CENTRE ASSIGNMENTS    1  1  1  1  1  1  1  1  1  1  1  1  1  1  1  1  1  1  1  1
CENTRE ASSIGNMENTS    1  1  1  1  1  1  1  1  1  1  1  1  1  1  1  1  1  1  1  1
CENTRE ASSIGNMENTS    1  1  1  1  1  1  1  1  1  1  1  1  2  2  2  2  2  2  2  2
CENTRE ASSIGNMENTS    2  2  2  2  2  2  2  2  2  2  2  2  2  2  2  2  2  2  2  3
CENTRE ASSIGNMENTS    3  3  3  3  3  3  3  3  3  3  3  3  3  3  3  3  3  3  3  3
CENTRE ASSIGNMENTS    3  3  3  3  3  3
TYPE ASSIGNMENTS      1  1  1  1  1  1  1  1  1  1  1  1  1  1  1  1  2  2  2  3
TYPE ASSIGNMENTS      3  3  4  4  4  2  3  4  2  3  4  2  3  4  5  6  7  8  9 10
TYPE ASSIGNMENTS      5  6  7  8  9 10  5  6  7  8  9 10 11 12 13 17 14 15 18 19
TYPE ASSIGNMENTS     16 20 11 12 13 17 14 15 18 19 16 20  1  1  1  1  1  1  2  3
TYPE ASSIGNMENTS      4  2  3  4  2  3  4  5  6  7  8  9 10  5  6  7  8  9 10  1
TYPE ASSIGNMENTS      1  1  1  1  1  2  3  4  2  3  4  2  3  4  5  6  7  8  9 10
TYPE ASSIGNMENTS      5  6  7  8  9 10
EXPONENTS  0.1533000D+05 0.2299000D+04 0.5224000D+03 0.1473000D+03 0.4755000D+02
EXPONENTS  0.1676000D+02 0.6207000D+01 0.5224000D+03 0.1473000D+03 0.4755000D+02
EXPONENTS  0.1676000D+02 0.6207000D+01 0.6882000D+00 0.1752000D+01 0.2384000D+00
EXPONENTS  0.7376000D-01 0.3446000D+02 0.7749000D+01 0.2280000D+01 0.3446000D+02
EXPONENTS  0.7749000D+01 0.2280000D+01 0.3446000D+02 0.7749000D+01 0.2280000D+01
EXPONENTS  0.7156000D+00 0.7156000D+00 0.7156000D+00 0.2140000D+00 0.2140000D+00
EXPONENTS  0.2140000D+00 0.5974000D-01 0.5974000D-01 0.5974000D-01 0.2314000D+01
EXPONENTS  0.2314000D+01 0.2314000D+01 0.2314000D+01 0.2314000D+01 0.2314000D+01
EXPONENTS  0.6450000D+00 0.6450000D+00 0.6450000D+00 0.6450000D+00 0.6450000D+00
EXPONENTS  0.6450000D+00 0.2140000D+00 0.2140000D+00 0.2140000D+00 0.2140000D+00
EXPONENTS  0.2140000D+00 0.2140000D+00 0.1428000D+01 0.1428000D+01 0.1428000D+01
EXPONENTS  0.1428000D+01 0.1428000D+01 0.1428000D+01 0.1428000D+01 0.1428000D+01
EXPONENTS  0.1428000D+01 0.1428000D+01 0.5000000D+00 0.5000000D+00 0.5000000D+00
EXPONENTS  0.5000000D+00 0.5000000D+00 0.5000000D+00 0.5000000D+00 0.5000000D+00
EXPONENTS  0.5000000D+00 0.5000000D+00 0.3387000D+02 0.5095000D+01 0.1159000D+01
EXPONENTS  0.3258000D+00 0.1027000D+00 0.2526000D-01 0.1407000D+01 0.1407000D+01
EXPONENTS  0.1407000D+01 0.3880000D+00 0.3880000D+00 0.3880000D+00 0.1020000D+00
EXPONENTS  0.1020000D+00 0.1020000D+00 0.1057000D+01 0.1057000D+01 0.1057000D+01
EXPONENTS  0.1057000D+01 0.1057000D+01 0.1057000D+01 0.2470000D+00 0.2470000D+00
EXPONENTS  0.2470000D+00 0.2470000D+00 0.2470000D+00 0.2470000D+00 0.3387000D+02
EXPONENTS  0.5095000D+01 0.1159000D+01 0.3258000D+00 0.1027000D+00 0.2526000D-01
EXPONENTS  0.1407000D+01 0.1407000D+01 0.1407000D+01 0.3880000D+00 0.3880000D+00
EXPONENTS  0.3880000D+00 0.1020000D+00 0.1020000D+00 0.1020000D+00 0.1057000D+01
EXPONENTS  0.1057000D+01 0.1057000D+01 0.1057000D+01 0.1057000D+01 0.1057000D+01
EXPONENTS  0.2470000D+00 0.2470000D+00 0.2470000D+00 0.2470000D+00 0.2470000D+00
EXPONENTS  0.2470000D+00
MO    1     MO 0.0        OCC NO =    2.0000000  ORB. ENERGY =    0.000000
 -0.67141291D-01 -0.12514033D+00 -0.21219301D+00 -0.32113156D+00 -0.40058631D+00
 -0.34376265D+00 -0.13164283D+00 -0.83389609D-03 -0.89471578D-02 -0.32980908D-01
 -0.96434241D-01 -0.11620795D+00  0.13998479D+00  0.77091169D-01  0.17264549D-02
 -0.46579259D-02  0.26530996D-01  0.25726142D-01  0.17354703D-01 -0.44769448D-01
 -0.43411305D-01 -0.29285010D-01 -0.12290107D+01 -0.11917270D+01 -0.80393197D+00
  0.59941649D-02 -0.94898434D-02 -0.27050730D+00  0.99781106D-03 -0.10191554D-02
 -0.31182990D-01  0.32503461D-04 -0.11903302D-04 -0.57653977D-03 -0.44237952D-01
  0.87985628D-02  0.35439389D-01 -0.34341559D-14 -0.10613246D-02  0.42146062D-02
 -0.81673369D-02 -0.25148566D-02  0.10682194D-01  0.13373564D-14 -0.29006290D-03
  0.66917339D-03  0.42624680D-03 -0.95259326D-03  0.52634646D-03  0.71140316D-16
 -0.21093138D-04 -0.59466452D-06 -0.15674610D-03 -0.18682671D-03 -0.82959084D-03
  0.30225006D-03  0.50828972D-03  0.18307072D-01  0.16798823D-03  0.52190399D-04
 -0.15818300D-01 -0.63211567D-16 -0.81420930D-05 -0.29916998D-05 -0.66603101D-03
  0.12949882D-04  0.38193215D-04  0.71122270D-03  0.11476397D-04 -0.29218115D-04
  0.12868703D-02 -0.19294406D-15  0.33462828D-01  0.60351588D-01  0.88988382D-01
  0.53762476D-01  0.65745248D-02  0.47839793D-04  0.34428169D-03  0.29842029D-01
  0.10819378D-01  0.18750814D-03  0.10898625D-01  0.24317695D-02  0.29369607D-04
  0.99863251D-04 -0.71233863D-03 -0.44594687D-02  0.59140158D-02 -0.14545471D-02
  0.16968819D-03  0.13450381D-03  0.11055447D-01 -0.16083551D-03  0.20620021D-03
 -0.45364695D-04  0.16958364D-04  0.10986407D-04 -0.67964493D-04  0.31232966D-01
  0.56329940D-01  0.83058464D-01  0.49745327D-01  0.60631585D-02  0.56486408D-04
  0.34428169D-03 -0.28857015D-01  0.92338624D-02  0.18750814D-03 -0.10533189D-01
  0.17802478D-02  0.29369607D-04 -0.12343017D-03 -0.72347071D-03 -0.40773187D-02
  0.58047676D-02 -0.17274489D-02 -0.16968819D-03  0.13450381D-03 -0.99300234D-02
 -0.15094589D-03  0.21367793D-03 -0.62732040D-04 -0.16958364D-04  0.10986407D-04
  0.11262302D-03
MO    2     MO 0.0        OCC NO =    2.0000000  ORB. ENERGY =    0.000000
  0.50047775D+00  0.93280823D+00  0.15817074D+01  0.23937460D+01  0.29860095D+01
  0.25624404D+01  0.98127853D+00  0.49485890D-03  0.53095113D-02  0.19571858D-01
  0.57226965D-01  0.68961276D-01 -0.83071165D-01  0.81040227D-02 -0.32755765D-01
 -0.33956542D-02 -0.66276574D-01 -0.64265982D-01 -0.43353452D-01 -0.33989978D-01
 -0.32958845D-01 -0.22233842D-01 -0.34412701D+00 -0.33368744D+00 -0.22510358D+00
 -0.14973909D-01 -0.72049038D-02 -0.71898425D-01 -0.24926127D-02 -0.77376584D-03
 -0.96773567D-02 -0.81196273D-04 -0.90372561D-05 -0.17828673D-03 -0.59823941D-02
 -0.30588213D-02  0.90412154D-02 -0.47063350D-14  0.26512748D-02  0.31998244D-02
  0.49407480D-03 -0.28930912D-02  0.23990165D-02  0.51546425D-15  0.72460059D-03
  0.50805158D-03  0.21431880D-03 -0.33063963D-03  0.11632083D-03 -0.15434075D-15
  0.52692366D-04 -0.45148276D-06  0.39156443D-03 -0.14184306D-03 -0.72827788D-03
 -0.75504510D-03  0.38590505D-03  0.34715149D-02 -0.41964819D-03  0.39624132D-04
 -0.12866812D-02 -0.15564379D-14  0.20339607D-04 -0.22713661D-05 -0.21602286D-03
 -0.32349853D-04  0.28997153D-04 -0.26117014D-03 -0.28668967D-04 -0.22183054D-04
  0.90923871D-03  0.28120198D-15  0.26147326D-02  0.47157779D-02  0.69534118D-02
  0.11025985D-01  0.30842760D-02  0.48901625D-04 -0.86004352D-03  0.11659089D-02
 -0.31092128D-02 -0.46841051D-03  0.24054238D-02 -0.35256629D-03 -0.73367653D-04
  0.14493557D-03 -0.19177896D-03  0.14706282D-03  0.70128052D-03 -0.84834335D-03
 -0.42389483D-03 -0.33600140D-03 -0.12370001D-02 -0.58867071D-04  0.75548386D-04
 -0.16681314D-04 -0.42363365D-04 -0.27444933D-04 -0.76108318D-05  0.92177082D-03
  0.16624516D-02  0.24512840D-02  0.79760745D-02  0.26960351D-02  0.55466330D-04
 -0.86004352D-03 -0.41806382D-03 -0.43129724D-02 -0.46841051D-03 -0.21279769D-02
 -0.84721634D-03 -0.73367653D-04 -0.16282811D-03 -0.20023069D-03  0.43719976D-03
  0.61833679D-03 -0.10555366D-02  0.42389483D-03 -0.33600140D-03  0.20914471D-02
 -0.51358643D-04  0.81225639D-04 -0.29866995D-04  0.42363365D-04 -0.27444933D-04
  0.41516592D-04
MO    3     MO 0.0        OCC NO =    2.0000000  ORB. ENERGY =    0.000000
  0.10894412D-01  0.20305393D-01  0.34430648D-01  0.52107124D-01  0.64999530D-01
  0.55779267D-01  0.21360496D-01 -0.10145668D-03 -0.10885636D-02 -0.40126502D-02
 -0.11732754D-01 -0.14138539D-01  0.17031368D-01  0.11765687D-01  0.53505269D-02
  0.37107901D-03 -0.19952710D+00 -0.19347417D+00 -0.13051653D+00  0.14529625D+01
  0.14088849D+01  0.95042542D+00  0.82117745D-02  0.79626590D-02  0.53715627D-02
 -0.45079285D-01  0.30798652D+00  0.15131797D-02 -0.75040660D-02  0.33076007D-01
  0.41051784D-03 -0.24444319D-03  0.38631370D-03  0.67540014D-05 -0.10700687D-02
  0.11429913D-02 -0.72922598D-04  0.24525146D-14  0.79817217D-02 -0.13678223D+00
 -0.32758543D-03  0.31253863D-03  0.15046800D-04  0.99208563D-15  0.21814262D-02
 -0.21717575D-01 -0.79138882D-05  0.79074494D-05  0.64387996D-08 -0.34076898D-15
  0.15863154D-03  0.19299441D-04  0.11788134D-02  0.60633358D-02  0.13972280D-03
 -0.22730800D-02 -0.16496203D-01  0.29246466D-03 -0.12633602D-02 -0.16938045D-02
 -0.71163306D-03 -0.12479081D-14  0.61232838D-04  0.97093616D-04 -0.10185256D-04
 -0.97389952D-04 -0.12395353D-02  0.13128288D-04 -0.86308563D-04  0.94825440D-03
  0.17427482D-04 -0.60962918D-15 -0.35260613D-01 -0.63593968D-01 -0.93769269D-01
 -0.64795747D-01 -0.85460682D-02  0.13418758D-03 -0.25891801D-02 -0.15037880D-01
 -0.24748733D-01 -0.14101603D-02 -0.59434158D-02 -0.10425524D-01 -0.22087495D-03
  0.35623756D-03 -0.18107330D-03  0.61218174D-02 -0.17660514D-02 -0.43557660D-02
 -0.12761448D-02 -0.10115397D-02 -0.17990394D-01  0.16435797D-03  0.11471723D-03
 -0.27907519D-03 -0.12753585D-03 -0.82623580D-04 -0.72839783D-03  0.37108072D-01
  0.66925936D-01  0.98682253D-01  0.65578159D-01  0.80499845D-02 -0.14643252D-03
 -0.25891801D-02 -0.16930100D-01  0.26708127D-01 -0.14101603D-02 -0.59165506D-02
  0.10719179D-01 -0.22087495D-03  0.40861112D-03  0.18021085D-03 -0.62806060D-02
  0.17795271D-02  0.45010789D-02  0.12761448D-02 -0.10115397D-02 -0.18534473D-01
 -0.15660326D-03 -0.12796712D-03  0.28457037D-03  0.12753585D-03 -0.82623580D-04
 -0.72096465D-03
MO    4     MO 0.0        OCC NO =    2.0000000  ORB. ENERGY =    0.000000
  0.10157746D-01  0.18932368D-01  0.32102491D-01  0.48583706D-01  0.60604344D-01
  0.52007543D-01  0.19916126D-01  0.26606218D-03  0.28546726D-02  0.10522861D-01
  0.30768228D-01  0.37077210D-01 -0.44663429D-01 -0.26358882D-01 -0.18004056D-01
 -0.17321745D-02  0.17562492D+01  0.17029710D+01  0.11488142D+01  0.17409951D+00
  0.16881796D+00  0.11388360D+00 -0.15266303D+00 -0.14803178D+00 -0.99861367D-01
  0.39679051D+00  0.36904120D-01 -0.32414859D-01  0.66051229D-01  0.39632933D-02
 -0.45319245D-02  0.21516032D-02  0.46289581D-04 -0.81370020D-04 -0.10455898D-02
 -0.28121585D-02  0.38577483D-02 -0.67600606D-14 -0.70255582D-01 -0.16389768D-01
  0.32201021D-03 -0.13500758D-02  0.10280656D-02  0.54654790D-14 -0.19201041D-01
 -0.26022827D-02  0.76035022D-04 -0.12859277D-03  0.52557745D-04  0.34670675D-14
 -0.13962841D-02  0.23125326D-05 -0.10375985D-01  0.72653202D-03 -0.52790634D-03
  0.20007784D-01 -0.19766380D-02  0.94947430D-03  0.11120171D-01 -0.20295812D-03
  0.63424472D-03 -0.25984872D-14 -0.53897503D-03  0.11634127D-04 -0.44122309D-04
  0.85723206D-03 -0.14852584D-03 -0.47125899D-05  0.75969303D-03  0.11362346D-03
  0.13707952D-03 -0.68274653D-14 -0.42111393D-02 -0.75949632D-02 -0.11198769D-01
 -0.39253483D-02  0.47558507D-03  0.43074994D-04  0.22790115D-01 -0.21823696D-02
 -0.53965103D-02  0.12412313D-01  0.38840312D-03 -0.15696648D-02  0.19441542D-02
  0.14288785D-03 -0.95590297D-04  0.65515476D-03  0.29512143D-03 -0.95027619D-03
  0.11232701D-01  0.89036316D-02 -0.22767864D-02 -0.92043446D-05  0.57180479D-04
 -0.47976135D-04  0.11225780D-02  0.72725759D-03 -0.85781479D-04  0.44603526D-02
  0.80444295D-02  0.11861507D-01  0.11696550D-01  0.24641874D-02  0.94500244D-05
  0.22790115D-01 -0.16481557D-02  0.76924690D-03  0.12412313D-01 -0.18095095D-02
  0.96397415D-03  0.19441542D-02 -0.51240762D-04 -0.52299853D-04 -0.83095092D-03
  0.71996617D-03  0.11098475D-03 -0.11232701D-01  0.89036316D-02 -0.20997625D-02
 -0.47663142D-04  0.28101116D-04  0.19562027D-04 -0.11225780D-02  0.72725759D-03
 -0.87886662D-04
MO    5     MO 0.0        OCC NO =    2.0000000  ORB. ENERGY =    0.000000
  0.63985041D-01  0.11925760D+00  0.20221801D+00  0.30603546D+00  0.38175511D+00
  0.32760268D+00  0.12545442D+00 -0.14352510D-02 -0.15399301D-01 -0.56764725D-01
 -0.16597672D+00 -0.20001002D+00  0.24093327D+00  0.15637428D+00  0.10109435D+00
  0.10002116D-01  0.30140596D+00  0.29226239D+00  0.19715848D+00 -0.56142533D-01
 -0.54439372D-01 -0.36724479D-01  0.92749365D+00  0.89935685D+00  0.60670082D+00
  0.68096841D-01 -0.11900612D-01  0.19787976D+00  0.11335654D-01 -0.12780583D-02
  0.27295519D-01  0.36925627D-03 -0.14927178D-04  0.49014817D-03  0.79626591D-02
  0.15695596D-01 -0.23658255D-01  0.44367401D-14 -0.12057202D-01  0.52852710D-02
 -0.12655993D-02  0.76587965D-02 -0.63931972D-02  0.10118626D-14 -0.32952660D-02
  0.83916801D-03 -0.43867719D-03  0.76567259D-03 -0.32699540D-03  0.13571397D-14
 -0.23962906D-03 -0.74573130D-06 -0.17807175D-02 -0.23428755D-03  0.30814112D-02
  0.34337184D-02  0.63741398D-03 -0.61869500D-02  0.19084340D-02  0.65448678D-04
 -0.30572834D-02 -0.35564553D-14 -0.92498425D-04 -0.37517014D-05  0.26147707D-03
  0.14711742D-03  0.47895694D-04 -0.83883468D-04  0.13037786D-03 -0.36640590D-04
 -0.70054773D-03 -0.25557453D-14 -0.11749748D-02 -0.21191154D-02 -0.31246344D-02
 -0.22329436D-01 -0.83290707D-02 -0.15561926D-03  0.39112197D-02  0.39101431D-03
  0.13425273D-01  0.21301904D-02 -0.66280485D-02  0.19530596D-02  0.33365406D-03
 -0.57368230D-03  0.45765503D-03  0.65995509D-03 -0.32551053D-02  0.25951502D-02
  0.19277464D-02  0.15280335D-02  0.11193248D-03  0.16364842D-03 -0.25877917D-03
  0.95130753D-04  0.19265586D-03  0.12481131D-03  0.21954755D-04 -0.39713038D-02
 -0.71624100D-02 -0.10560969D-01 -0.27367089D-01 -0.89703429D-02 -0.14477609D-03
  0.39112197D-02  0.84422977D-03  0.11436978D-01  0.21301904D-02  0.70863181D-02
  0.11360274D-02  0.33365406D-03  0.54412851D-03  0.44369500D-03  0.11391853D-02
 -0.33921066D-02  0.22529214D-02 -0.19277464D-02  0.15280335D-02  0.12993899D-02
  0.17605038D-03 -0.24940184D-03  0.73351464D-04 -0.19265586D-03  0.12481131D-03
  0.34048673D-04
END DATA
 TOTAL ENERGY =    -76.464267688260 THE VIRIAL(-V/T)=   2.00728923
