 86
GAUSSIAN              5 MOL ORBITALS    126 PRIMITIVES        3 NUCLEI   B3LYP
  O    1    (CENTRE  1)   0.00000000  0.00000000  0.00815606  CHARGE =  8.0
  H    2    (CENTRE  2)   0.00000000 -1.44255835 -1.09730160  CHARGE =  1.0
  H    3    (CENTRE  3)   0.09448631  1.44255835 -1.00281530  CHARGE =  1.0
CENTRE ASSIGNMENTS    1  1  1  1  1  1  1  1  1  1  1  1  1  1  1  1  1  1  1  1
CENTRE ASSIGNMENTS    1  1  1  1  1  1  1  1  1  1  1  1  1  1  1  1  1  1  1  1
CENTRE ASSIGNMENTS    1  1  1  1  1  1  1  1  1  1  1  1  1  1  1  1  1  1  1  1
CENTRE ASSIGNMENTS    1  1  1  1  1  1  1  1  1  1  1  1  2  2  2  2  2  2  2  2
CENTRE ASSIGNMENTS    2  2  2  2  2  2  2  2  2  2  2  2  2  2  2  2  2  2  2  3
CENTRE ASSIGNMENTS    3  3  3  3  3  3  3  3  3  3  3  3  3  3  3  3  3  3  3  3
CENTRE ASSIGNMENTS    3  3  3  3  3  3
TYPE ASSIGNMENTS      1  1  1  1  1  1  1  1  1  1  1  1  1  1  1  1  2  2  2  3
TYPE ASSIGNMENTS      3  3  4  4  4  2  3  4  2  3  4  2  3  4  5  6  7  8  9 10
TYPE ASSIGNMENTS      5  6  7  8  9 10  5  6  7  8  9 10 11 12 13 17 14 15 18 19
TYPE ASSIGNMENTS     16 20 11 12 13 17 14 15 18 19 16 20  1  1  1  1  1  1  2  3
TYPE ASSIGNMENTS      4  2  3  4  2  3  4  5  6  7  8  9 10  5  6  7  8  9 10  1
TYPE ASSIGNMENTS      1  1  1  1  1  2  3  4  2  3  4  2  3  4  5  6  7  8  9 10
TYPE ASSIGNMENTS      5  6  7  8  9 10
EXPONENTS  0.1533000D+05 0.2299000D+04 0.5224000D+03 0.1473000D+03 0.4755000D+02
EXPONENTS  0.1676000D+02 0.6207000D+01 0.5224000D+03 0.1473000D+03 0.4755000D+02
EXPONENTS  0.1676000D+02 0.6207000D+01 0.6882000D+00 0.1752000D+01 0.2384000D+00
EXPONENTS  0.7376000D-01 0.3446000D+02 0.7749000D+01 0.2280000D+01 0.3446000D+02
EXPONENTS  0.7749000D+01 0.2280000D+01 0.3446000D+02 0.7749000D+01 0.2280000D+01
EXPONENTS  0.7156000D+00 0.7156000D+00 0.7156000D+00 0.2140000D+00 0.2140000D+00
EXPONENTS  0.2140000D+00 0.5974000D-01 0.5974000D-01 0.5974000D-01 0.2314000D+01
EXPONENTS  0.2314000D+01 0.2314000D+01 0.2314000D+01 0.2314000D+01 0.2314000D+01
EXPONENTS  0.6450000D+00 0.6450000D+00 0.6450000D+00 0.6450000D+00 0.6450000D+00
EXPONENTS  0.6450000D+00 0.2140000D+00 0.2140000D+00 0.2140000D+00 0.2140000D+00
EXPONENTS  0.2140000D+00 0.2140000D+00 0.1428000D+01 0.1428000D+01 0.1428000D+01
EXPONENTS  0.1428000D+01 0.1428000D+01 0.1428000D+01 0.1428000D+01 0.1428000D+01
EXPONENTS  0.1428000D+01 0.1428000D+01 0.5000000D+00 0.5000000D+00 0.5000000D+00
EXPONENTS  0.5000000D+00 0.5000000D+00 0.5000000D+00 0.5000000D+00 0.5000000D+00
EXPONENTS  0.5000000D+00 0.5000000D+00 0.3387000D+02 0.5095000D+01 0.1159000D+01
EXPONENTS  0.3258000D+00 0.1027000D+00 0.2526000D-01 0.1407000D+01 0.1407000D+01
EXPONENTS  0.1407000D+01 0.3880000D+00 0.3880000D+00 0.3880000D+00 0.1020000D+00
EXPONENTS  0.1020000D+00 0.1020000D+00 0.1057000D+01 0.1057000D+01 0.1057000D+01
EXPONENTS  0.1057000D+01 0.1057000D+01 0.1057000D+01 0.2470000D+00 0.2470000D+00
EXPONENTS  0.2470000D+00 0.2470000D+00 0.2470000D+00 0.2470000D+00 0.3387000D+02
EXPONENTS  0.5095000D+01 0.1159000D+01 0.3258000D+00 0.1027000D+00 0.2526000D-01
EXPONENTS  0.1407000D+01 0.1407000D+01 0.1407000D+01 0.3880000D+00 0.3880000D+00
EXPONENTS  0.3880000D+00 0.1020000D+00 0.1020000D+00 0.1020000D+00 0.1057000D+01
EXPONENTS  0.1057000D+01 0.1057000D+01 0.1057000D+01 0.1057000D+01 0.1057000D+01
EXPONENTS  0.2470000D+00 0.2470000D+00 0.2470000D+00 0.2470000D+00 0.2470000D+00
EXPONENTS  0.2470000D+00
MO    1     MO 0.0        OCC NO =    2.0000000  ORB. ENERGY =    0.000000
 -0.49947853D-01 -0.93094586D-01 -0.15785495D+00 -0.23889669D+00 -0.29800478D+00
 -0.25573244D+00 -0.97931939D-01  0.28497641D-03  0.30576099D-02  0.11270926D-01
  0.32955526D-01  0.39713011D-01 -0.47838530D-01 -0.35199875D-01  0.36428951D-01
  0.77374460D-02 -0.11607512D+00 -0.11255382D+00 -0.75928139D-01  0.47061824D-02
  0.45634138D-02  0.30784520D-02  0.15062582D+01  0.14605638D+01  0.98528770D+00
 -0.25560015D-01  0.27342520D-02  0.32691513D+00 -0.34936811D-02  0.10316456D-02
  0.38574493D-01 -0.92028185D-04  0.63421291D-05  0.77990886D-03  0.45516921D-01
 -0.66697858D-02 -0.38847135D-01 -0.37047921D-02  0.95786031D-02  0.34152486D-04
  0.61574329D-02  0.53993079D-02 -0.11556741D-01 -0.19330110D-04  0.20605742D-02
 -0.89431301D-03 -0.88489706D-03  0.14984018D-02 -0.61350475D-03  0.17535349D-03
 -0.47256000D-07 -0.22125031D-03  0.11117670D-02  0.20393229D-04  0.50470697D-03
 -0.13733227D-02 -0.62428090D-03 -0.18571201D-01 -0.19619781D-02  0.56310121D-03
  0.17057080D-01  0.23491308D-02  0.28870245D-05 -0.37869851D-04  0.69815629D-03
  0.90216539D-04 -0.14492493D-03  0.16422966D-06 -0.98877612D-04  0.25853448D-03
 -0.20946331D-02 -0.19113864D-03 -0.31655167D-01 -0.57091397D-01 -0.84181232D-01
 -0.58416924D-01 -0.83407980D-02 -0.90495567D-04 -0.15163943D-02 -0.29968539D-01
 -0.41898203D-02 -0.78008527D-03 -0.12508467D-01 -0.39717077D-03 -0.11018810D-03
 -0.16410586D-03  0.10599780D-02  0.41577611D-02 -0.73233056D-02  0.31655445D-02
 -0.71518981D-03 -0.47251862D-03 -0.90921226D-02  0.11797926D-03 -0.23887359D-03
  0.12089433D-03 -0.82104973D-04 -0.57815752D-05  0.48757697D-03 -0.30461142D-01
 -0.54937923D-01 -0.81005936D-01 -0.57011835D-01 -0.75173408D-02 -0.88510794D-04
  0.46386167D-03  0.31978769D-01 -0.21304053D-02 -0.11570437D-04  0.12573482D-01
  0.10540997D-02 -0.10958981D-03  0.57793140D-04  0.11603444D-02  0.41521119D-02
 -0.81758223D-02  0.40237104D-02 -0.83899072D-03  0.38965552D-04  0.81145044D-02
  0.16917790D-04 -0.17653014D-03  0.15961235D-03  0.62193569D-04 -0.63707454D-04
 -0.80356610D-03
MO    2     MO 0.0        OCC NO =    2.0000000  ORB. ENERGY =    0.000000
 -0.56687505D-01 -0.10565619D+00 -0.17915491D+00 -0.27113191D+00 -0.33821569D+00
 -0.29023938D+00 -0.11114626D+00  0.43133051D-03  0.46278933D-02  0.17059286D-01
  0.49880352D-01  0.60108250D-01 -0.72406756D-01 -0.50709169D-01 -0.31528046D-01
 -0.29275305D-02 -0.57857147D+00 -0.56101970D+00 -0.37846058D+00  0.13226707D+01
  0.12825457D+01  0.86519775D+00 -0.23927100D+00 -0.23201239D+00 -0.15651419D+00
 -0.13174039D+00  0.27045997D+00 -0.50069504D-01 -0.22277299D-01  0.23828769D-01
 -0.69294580D-02 -0.72900191D-03  0.22691347D-03 -0.15678962D-03 -0.18546370D-02
 -0.26100954D-02  0.44647324D-02  0.38765172D-02  0.21486089D-01 -0.12138914D+00
  0.58699347D-03 -0.22053206D-02  0.16183271D-02  0.38895157D-03  0.59718814D-02
 -0.14404524D-01  0.21473358D-03 -0.33145434D-03  0.11672076D-03 -0.71424567D-04
  0.47201274D-03  0.13742149D-02  0.33266820D-02  0.65525972D-02 -0.11708057D-02
 -0.69127208D-02 -0.13359610D-01  0.13450599D-02 -0.30673251D-02 -0.62981818D-02
  0.21673572D-02 -0.61610334D-03  0.86617456D-04  0.13110475D-03 -0.47483674D-04
 -0.82632693D-04 -0.61285431D-03 -0.82541587D-04 -0.17721967D-03  0.21954006D-03
  0.22499261D-03 -0.19726081D-03 -0.34240195D-01 -0.61753601D-01 -0.91055649D-01
 -0.57169597D-01 -0.53811751D-02  0.13366426D-03 -0.81696331D-02 -0.20254778D-01
 -0.29285225D-01 -0.44895766D-02 -0.53476658D-02 -0.10824531D-01 -0.71343376D-03
  0.33385498D-03 -0.36267764D-03  0.63459238D-02 -0.25478192D-02 -0.37981046D-02
 -0.40734342D-02 -0.30085084D-02 -0.19713238D-01 -0.13910042D-04  0.21347581D-03
 -0.19956577D-03 -0.42083042D-03 -0.29322408D-03 -0.60004705D-03  0.33310736D-01
  0.60077285D-01  0.88583921D-01  0.70022066D-01  0.95722297D-02 -0.49721086D-04
 -0.11058283D-01 -0.21088447D-01  0.21122863D-01 -0.58352616D-02 -0.95162667D-02
  0.89476835D-02 -0.76992578D-03  0.10298109D-03 -0.33455282D-04 -0.66922412D-02
  0.55158641D-02  0.11763770D-02  0.64847936D-02 -0.46477406D-02 -0.19558889D-01
  0.34252695D-04 -0.12450847D-03  0.90255778D-04  0.51368507D-03 -0.31678375D-03
 -0.26834821D-03
MO    3     MO 0.0        OCC NO =    2.0000000  ORB. ENERGY =    0.000000
 -0.69336695D-01 -0.12923220D+00 -0.21913135D+00 -0.33163200D+00 -0.41368478D+00
 -0.35500309D+00 -0.13594732D+00  0.29085783D-04  0.31207137D-03  0.11503538D-02
  0.33635671D-02  0.40532619D-02 -0.48825835D-02 -0.10977224D-01 -0.35307559D-02
 -0.31611598D-03  0.16776153D+01  0.16267225D+01  0.10973774D+01  0.44495311D+00
  0.43145484D+00  0.29105689D+00  0.65900090D-01  0.63900919D-01  0.43107183D-01
  0.37829145D+00  0.89486360D-01  0.15476517D-01  0.61528651D-01  0.67360753D-02
  0.27453334D-02  0.19486015D-02  0.94632564D-05  0.84980913D-04  0.34028756D-02
  0.35561316D-03 -0.37584888D-02  0.57018277D-02 -0.69686042D-01 -0.43853586D-01
  0.94570011D-03 -0.17910839D-03 -0.76659173D-03  0.30539484D-03 -0.17224254D-01
 -0.47689081D-02  0.98326811D-04 -0.61043582D-04 -0.37283229D-04 -0.10884432D-03
 -0.10595003D-02  0.57771086D-03 -0.10068199D-01  0.16759418D-02  0.12568857D-03
  0.22306880D-01 -0.22496263D-02 -0.23402503D-02  0.78977168D-02 -0.27781991D-02
  0.19631845D-02  0.42637440D-03 -0.27575796D-03  0.36512792D-04  0.19698953D-04
  0.35210200D-03 -0.19308384D-03 -0.84537146D-04  0.47517189D-03  0.83545465D-04
  0.25440287D-04  0.35938416D-03 -0.13025542D-01 -0.23492101D-01 -0.34639089D-01
 -0.23603334D-01 -0.27379799D-02  0.38939213D-04  0.23160276D-01 -0.83721148D-02
 -0.87815315D-02  0.12615031D-01 -0.30227760D-02 -0.32701341D-02  0.19448403D-02
  0.75054692D-05  0.72944237D-05  0.23923525D-02 -0.16181964D-02 -0.77415608D-03
  0.11439848D-01  0.85492531D-02 -0.69366123D-02  0.17277001D-04  0.92177671D-05
 -0.26494768D-04  0.12235159D-02  0.75655689D-03 -0.18691216D-03  0.13168290D-01
  0.23749552D-01  0.35018701D-01  0.25692186D-01  0.30880177D-02 -0.30573740D-04
  0.23837850D-01 -0.96414996D-02  0.10915322D-01  0.13081896D-01 -0.38107373D-02
  0.44972606D-02  0.20272234D-02 -0.42106615D-05  0.14753598D-03 -0.36312142D-02
  0.24940446D-02  0.11371696D-02 -0.11695767D-01  0.78429013D-02 -0.91512558D-02
 -0.68843288D-04 -0.17337934D-04  0.86181221D-04 -0.13316039D-02  0.77238079D-03
 -0.22717805D-03
MO    4     MO 0.0        OCC NO =    2.0000000  ORB. ENERGY =    0.000000
  0.27170810D+00  0.50641922D+00  0.85870495D+00  0.12995586D+01  0.16210970D+01
  0.13911424D+01  0.53273362D+00 -0.10541743D-02 -0.11310598D-01 -0.41692996D-01
 -0.12190787D+00 -0.14690492D+00  0.17696254D+00  0.14095222D+00  0.67951654D-01
  0.62928750D-02 -0.79027486D-02 -0.76630078D-02 -0.51694198D-02  0.47527531D+00
  0.46085718D+00  0.31089153D+00  0.49792973D+00  0.48282434D+00  0.32571045D+00
 -0.18917009D-02  0.96921306D-01  0.10687301D+00 -0.50800982D-03  0.83137682D-02
  0.16151585D-01 -0.13821570D-04  0.72806705D-04  0.31452645D-03 -0.25952298D-02
  0.17357587D-01 -0.14762358D-01  0.33431455D-02 -0.35651797D-03 -0.44309908D-01
 -0.14595812D-02  0.49037842D-02 -0.34442030D-02  0.64365281D-03  0.37127887D-04
 -0.46525778D-02 -0.17310254D-03  0.33081506D-03 -0.15771252D-03  0.11598093D-04
  0.17516080D-04  0.51355360D-03 -0.88702024D-04  0.24670014D-02  0.20380338D-02
  0.76454501D-03 -0.47214509D-02 -0.13822999D-02 -0.49843893D-03 -0.26795534D-02
 -0.47318015D-02 -0.41486216D-03  0.55312260D-05  0.19075390D-04 -0.16409763D-03
 -0.20408880D-04 -0.15455356D-03 -0.23331587D-03  0.38152017D-05  0.97327387D-04
  0.72560876D-03  0.42965440D-04 -0.90079156D-02 -0.16246147D-01 -0.23954934D-01
 -0.32674577D-01 -0.78257360D-02 -0.58399732D-04 -0.21657417D-03 -0.34523694D-02
  0.16055653D-02 -0.14742415D-03 -0.64921922D-02 -0.19982275D-02 -0.23283222D-04
 -0.34714058D-03  0.20477513D-03  0.29188396D-02 -0.36493244D-02  0.73048474D-03
 -0.16093901D-03 -0.45530449D-04 -0.67591970D-02  0.13347066D-03 -0.15427867D-03
  0.20808012D-04 -0.12566377D-04  0.26463481D-05 -0.19157129D-03  0.16904707D-01
  0.30488336D-01  0.44955033D-01  0.14423869D-01 -0.23050326D-02 -0.13022779D-03
 -0.14041367D-02 -0.12912379D-01  0.20915245D-01 -0.22798170D-03  0.99176824D-03
  0.55210017D-02 -0.17702749D-05  0.47855990D-03  0.35396906D-03 -0.20208130D-02
 -0.59201818D-03  0.26128312D-02  0.48899826D-03 -0.71329294D-03 -0.84031892D-02
  0.13183184D-03 -0.25871831D-03  0.12688647D-03 -0.17534800D-04 -0.63176116D-05
 -0.17152529D-03
MO    5     MO 0.0        OCC NO =    2.0000000  ORB. ENERGY =    0.000000
  0.41822450D+00  0.77950170D+00  0.13217547D+01  0.20003351D+01  0.24952604D+01
  0.21413047D+01  0.82000593D+00  0.12785591D-02  0.13718100D-01  0.50567501D-01
  0.14785641D+00  0.17817416D+00 -0.21462966D+00 -0.82729834D-01 -0.65823831D-01
 -0.50702135D-02  0.19416884D+00  0.18827846D+00  0.12701154D+00 -0.54828545D-01
 -0.53165246D-01 -0.35864961D-01 -0.23630680D+00 -0.22913811D+00 -0.15457522D+00
  0.43711804D-01 -0.98661628D-02 -0.48764652D-01  0.72533988D-02 -0.43199773D-03
 -0.95582794D-02  0.22569276D-03 -0.10435984D-05 -0.18576231D-03  0.81366857D-02
 -0.15019667D-01  0.68829812D-02 -0.13280887D-02 -0.74109884D-02  0.40524550D-02
  0.31083809D-02 -0.45016975D-02  0.13933167D-02 -0.47622810D-03 -0.17834896D-02
 -0.59087295D-03  0.93690598D-04 -0.16015642D-03  0.66465826D-04 -0.17648842D-04
 -0.12505951D-03 -0.17259203D-03 -0.10908916D-02 -0.37275140D-03 -0.12407692D-02
  0.22096041D-02  0.28340692D-03 -0.52945544D-03  0.10630707D-02  0.83484728D-03
  0.42517631D-02  0.28902399D-03 -0.22612244D-04 -0.92449274D-05  0.64397013D-04
  0.38954851D-04 -0.46127430D-04 -0.20879840D-03  0.28881882D-04  0.73862212D-04
  0.15607364D-04  0.46627199D-04 -0.86353971D-02 -0.15574294D-01 -0.22964288D-01
  0.54360061D-03  0.39013843D-02  0.82895286D-04  0.27418174D-02 -0.10256517D-01
 -0.11753772D-01  0.15237496D-02  0.10164376D-02 -0.19839040D-02  0.23400691D-03
  0.34382403D-03 -0.12575294D-03  0.14655385D-02 -0.20392932D-03 -0.12616091D-02
  0.13958723D-02  0.10069336D-02 -0.53694350D-02 -0.90774458D-04  0.15337767D-03
 -0.62603214D-04  0.15009609D-03  0.83564967D-04  0.45186273D-04 -0.12148433D-01
 -0.21910199D-01 -0.32306575D-01 -0.59861662D-02  0.30009247D-02  0.79816993D-04
  0.38794578D-02  0.13979687D-01 -0.14670740D-01  0.16453345D-02  0.22682836D-03
 -0.32179821D-02  0.22452279D-03 -0.30304739D-03 -0.18684225D-03  0.24196298D-02
 -0.12623377D-02 -0.11572920D-02 -0.20288397D-02  0.15690793D-02  0.85152473D-02
 -0.97081837D-04  0.15269389D-03 -0.55612058D-04 -0.13320181D-03  0.85040207D-04
  0.10237266D-04
END DATA
 TOTAL ENERGY =    -76.465312553001 THE VIRIAL(-V/T)=   2.00526889
