 86
GAUSSIAN              5 MOL ORBITALS    126 PRIMITIVES        3 NUCLEI   B3LYP
  O    1    (CENTRE  1)   0.00000000  0.00000000  0.00815606  CHARGE =  8.0
  H    2    (CENTRE  2)   0.00000000 -1.44255835 -1.09730160  CHARGE =  1.0
  H    3    (CENTRE  3)  -0.09448631  1.44255835 -1.00281530  CHARGE =  1.0
CENTRE ASSIGNMENTS    1  1  1  1  1  1  1  1  1  1  1  1  1  1  1  1  1  1  1  1
CENTRE ASSIGNMENTS    1  1  1  1  1  1  1  1  1  1  1  1  1  1  1  1  1  1  1  1
CENTRE ASSIGNMENTS    1  1  1  1  1  1  1  1  1  1  1  1  1  1  1  1  1  1  1  1
CENTRE ASSIGNMENTS    1  1  1  1  1  1  1  1  1  1  1  1  2  2  2  2  2  2  2  2
CENTRE ASSIGNMENTS    2  2  2  2  2  2  2  2  2  2  2  2  2  2  2  2  2  2  2  3
CENTRE ASSIGNMENTS    3  3  3  3  3  3  3  3  3  3  3  3  3  3  3  3  3  3  3  3
CENTRE ASSIGNMENTS    3  3  3  3  3  3
TYPE ASSIGNMENTS      1  1  1  1  1  1  1  1  1  1  1  1  1  1  1  1  2  2  2  3
TYPE ASSIGNMENTS      3  3  4  4  4  2  3  4  2  3  4  2  3  4  5  6  7  8  9 10
TYPE ASSIGNMENTS      5  6  7  8  9 10  5  6  7  8  9 10 11 12 13 17 14 15 18 19
TYPE ASSIGNMENTS     16 20 11 12 13 17 14 15 18 19 16 20  1  1  1  1  1  1  2  3
TYPE ASSIGNMENTS      4  2  3  4  2  3  4  5  6  7  8  9 10  5  6  7  8  9 10  1
TYPE ASSIGNMENTS      1  1  1  1  1  2  3  4  2  3  4  2  3  4  5  6  7  8  9 10
TYPE ASSIGNMENTS      5  6  7  8  9 10
EXPONENTS  0.1533000D+05 0.2299000D+04 0.5224000D+03 0.1473000D+03 0.4755000D+02
EXPONENTS  0.1676000D+02 0.6207000D+01 0.5224000D+03 0.1473000D+03 0.4755000D+02
EXPONENTS  0.1676000D+02 0.6207000D+01 0.6882000D+00 0.1752000D+01 0.2384000D+00
EXPONENTS  0.7376000D-01 0.3446000D+02 0.7749000D+01 0.2280000D+01 0.3446000D+02
EXPONENTS  0.7749000D+01 0.2280000D+01 0.3446000D+02 0.7749000D+01 0.2280000D+01
EXPONENTS  0.7156000D+00 0.7156000D+00 0.7156000D+00 0.2140000D+00 0.2140000D+00
EXPONENTS  0.2140000D+00 0.5974000D-01 0.5974000D-01 0.5974000D-01 0.2314000D+01
EXPONENTS  0.2314000D+01 0.2314000D+01 0.2314000D+01 0.2314000D+01 0.2314000D+01
EXPONENTS  0.6450000D+00 0.6450000D+00 0.6450000D+00 0.6450000D+00 0.6450000D+00
EXPONENTS  0.6450000D+00 0.2140000D+00 0.2140000D+00 0.2140000D+00 0.2140000D+00
EXPONENTS  0.2140000D+00 0.2140000D+00 0.1428000D+01 0.1428000D+01 0.1428000D+01
EXPONENTS  0.1428000D+01 0.1428000D+01 0.1428000D+01 0.1428000D+01 0.1428000D+01
EXPONENTS  0.1428000D+01 0.1428000D+01 0.5000000D+00 0.5000000D+00 0.5000000D+00
EXPONENTS  0.5000000D+00 0.5000000D+00 0.5000000D+00 0.5000000D+00 0.5000000D+00
EXPONENTS  0.5000000D+00 0.5000000D+00 0.3387000D+02 0.5095000D+01 0.1159000D+01
EXPONENTS  0.3258000D+00 0.1027000D+00 0.2526000D-01 0.1407000D+01 0.1407000D+01
EXPONENTS  0.1407000D+01 0.3880000D+00 0.3880000D+00 0.3880000D+00 0.1020000D+00
EXPONENTS  0.1020000D+00 0.1020000D+00 0.1057000D+01 0.1057000D+01 0.1057000D+01
EXPONENTS  0.1057000D+01 0.1057000D+01 0.1057000D+01 0.2470000D+00 0.2470000D+00
EXPONENTS  0.2470000D+00 0.2470000D+00 0.2470000D+00 0.2470000D+00 0.3387000D+02
EXPONENTS  0.5095000D+01 0.1159000D+01 0.3258000D+00 0.1027000D+00 0.2526000D-01
EXPONENTS  0.1407000D+01 0.1407000D+01 0.1407000D+01 0.3880000D+00 0.3880000D+00
EXPONENTS  0.3880000D+00 0.1020000D+00 0.1020000D+00 0.1020000D+00 0.1057000D+01
EXPONENTS  0.1057000D+01 0.1057000D+01 0.1057000D+01 0.1057000D+01 0.1057000D+01
EXPONENTS  0.2470000D+00 0.2470000D+00 0.2470000D+00 0.2470000D+00 0.2470000D+00
EXPONENTS  0.2470000D+00
MO    1     MO 0.0        OCC NO =    2.0000000  ORB. ENERGY =    0.000000
 -0.96186575D-01 -0.17927596D+00 -0.30398758D+00 -0.46005288D+00 -0.57387971D+00
 -0.49247417D+00 -0.18859144D+00  0.29793546D-04  0.31966519D-03  0.11783461D-02
  0.34454149D-02  0.41518924D-02 -0.50013944D-02 -0.14373081D-01  0.49905152D-01
  0.87493037D-02  0.18764332D+00  0.18195090D+00  0.12274300D+00 -0.16390275D+00
 -0.15893054D+00 -0.10721360D+00  0.15393444D+01  0.14926463D+01  0.10069303D+01
  0.41554408D-01 -0.31877726D-01  0.33342252D+00  0.60338162D-02 -0.20232856D-02
  0.39991993D-01  0.16953359D-03 -0.19551903D-04  0.80729844D-03  0.43385769D-01
 -0.38829696D-02 -0.39502800D-01  0.42273280D-02 -0.12646929D-01  0.15836345D-01
  0.54352538D-02  0.62676346D-02 -0.11702888D-01  0.75475224D-05 -0.27433732D-02
  0.11327547D-02 -0.91412984D-03  0.15377976D-02 -0.62366781D-03 -0.19004450D-03
 -0.34848033D-04 -0.38252676D-03 -0.15374849D-02 -0.76366595D-03  0.82361669D-03
  0.23543607D-02  0.98096029D-03 -0.18139584D-01  0.22580940D-02  0.13100376D-02
  0.15668734D-01 -0.22983959D-02 -0.14628116D-04 -0.53054392D-04  0.67735871D-03
 -0.68543596D-04 -0.53698560D-04  0.43383890D-04  0.11242794D-03  0.21286173D-03
 -0.20754600D-02  0.19503594D-03 -0.25061044D-01 -0.45198625D-01 -0.66645346D-01
 -0.49546826D-01 -0.80282977D-02 -0.11938683D-03  0.24952942D-02 -0.25028242D-01
  0.15769344D-02  0.13143692D-02 -0.11662406D-01  0.13407434D-02  0.19018665D-03
 -0.25362677D-03  0.11007193D-02  0.30036592D-02 -0.67865077D-02  0.37828485D-02
  0.12016507D-02  0.83529776D-03 -0.54719085D-02  0.13076966D-03 -0.28332927D-03
  0.15255961D-03  0.13579404D-03  0.34618203D-04  0.55067248D-03 -0.32606757D-01
 -0.58807630D-01 -0.86711816D-01 -0.64609584D-01 -0.91366866D-02 -0.92055028D-04
  0.44655698D-03  0.32229920D-01 -0.28756154D-02  0.45629169D-03  0.13648627D-01
  0.23484502D-03  0.18699185D-03  0.94450287D-04  0.11624563D-02  0.47051967D-02
 -0.86351751D-02  0.39299784D-02  0.48555830D-03  0.18788518D-03  0.94757269D-02
  0.32820925D-04 -0.18263630D-03  0.14981538D-03 -0.11003209D-03  0.90058324D-04
 -0.74502618D-03
MO    2     MO 0.0        OCC NO =    2.0000000  ORB. ENERGY =    0.000000
 -0.34192753D-01 -0.63729670D-01 -0.10806261D+00 -0.16354127D+00 -0.20400484D+00
 -0.17506651D+00 -0.67041172D-01  0.11928637D-03  0.12798645D-02  0.47178214D-02
  0.13794633D-01  0.16623203D-01 -0.20024410D-01 -0.16256549D-01 -0.10777111D-01
 -0.11818536D-02  0.17378314D+01  0.16851118D+01  0.11367665D+01  0.28514693D+00
  0.27649661D+00  0.18652298D+00 -0.20421426D+00 -0.19801914D+00 -0.13358254D+00
  0.39252402D+00  0.59416638D-01 -0.44556013D-01  0.64295838D-01  0.61607666D-02
 -0.63634066D-02  0.20483406D-02  0.10500092D-03 -0.16229650D-03 -0.51657478D-02
 -0.99132499D-03  0.61570728D-02  0.28279619D-02 -0.70776800D-01 -0.23470872D-01
 -0.82904516D-03 -0.86874963D-03  0.16977948D-02  0.44013693D-04 -0.17827067D-01
 -0.30599347D-02  0.40008134D-04 -0.14246107D-03  0.10245293D-03 -0.53994941D-04
 -0.11531963D-02  0.21325888D-03 -0.10349143D-01  0.18635335D-02 -0.71025980D-03
  0.22718952D-01 -0.47451129D-02  0.30603149D-02  0.83284759D-02 -0.84548776D-03
 -0.92953555D-03  0.71576292D-03 -0.28015569D-03  0.37381709D-04 -0.46965207D-04
  0.34470568D-03 -0.13752828D-03  0.66887879D-04  0.49576138D-03  0.25383158D-04
  0.74007742D-04  0.41155498D-03 -0.47887371D-02 -0.86366846D-02 -0.12734786D-01
 -0.69086446D-02 -0.30614213D-03  0.31948310D-04  0.24087117D-01 -0.16684502D-02
 -0.64863011D-02  0.13142551D-01  0.24329732D-03 -0.24910091D-02  0.20371889D-02
  0.15237987D-03 -0.20663837D-03  0.86341804D-03  0.39625158D-03 -0.12596696D-02
  0.11919053D-01  0.88903860D-02 -0.32050254D-02 -0.21656317D-04  0.98546715D-04
 -0.76890399D-04  0.12673951D-02  0.80099759D-03 -0.15206524D-03  0.68044690D-02
  0.12272140D-01  0.18095263D-01  0.15050131D-01  0.22571356D-02  0.56380190D-06
  0.26234055D-01 -0.39301353D-02  0.20574879D-02  0.14252942D-01 -0.19594670D-02
  0.83050897D-03  0.21364267D-02  0.59661412D-04 -0.15851978D-03 -0.59369840D-03
  0.10335873D-02 -0.43988893D-03 -0.13454915D-01  0.91697265D-02 -0.29218907D-02
  0.78212861D-04 -0.48239640D-04 -0.29973221D-04 -0.14071726D-02  0.82543840D-03
  0.73033607D-04
MO    3     MO 0.0        OCC NO =    2.0000000  ORB. ENERGY =    0.000000
  0.46629873D+00  0.86910417D+00  0.14736883D+01  0.22302705D+01  0.27820866D+01
  0.23874442D+01  0.91426430D+00  0.20474150D-04  0.21967419D-03  0.80976044D-03
  0.23676920D-02  0.28531840D-02 -0.34369625D-02  0.52632203D-01  0.12157832D-01
  0.18563610D-02  0.26517631D+00  0.25713182D+00  0.17345961D+00 -0.40195846D+00
 -0.38976449D+00 -0.26293282D+00  0.23897274D+00  0.23172318D+00  0.15631909D+00
  0.59421098D-01 -0.80936649D-01  0.51644736D-01  0.93646125D-02 -0.65663020D-02
  0.58342602D-02  0.28871814D-03 -0.45044148D-04  0.11133841D-03  0.39807797D-02
  0.14541597D-02 -0.54349393D-02  0.23989443D-02 -0.12061244D-01  0.36947688D-01
  0.66727660D-03  0.10364018D-02 -0.17036784D-02  0.17376785D-03 -0.28344078D-02
  0.38945965D-02 -0.17462535D-03  0.26763597D-03 -0.93010623D-04 -0.64171643D-04
 -0.13241722D-03 -0.52401649D-03 -0.16204962D-02 -0.18018751D-02  0.81442735D-03
  0.35347280D-02  0.31304146D-02 -0.11844985D-02  0.13267606D-02  0.22752106D-02
 -0.12587835D-02 -0.62108946D-04 -0.54719924D-04 -0.56753757D-04 -0.31190295D-04
  0.79813289D-04  0.17234682D-03 -0.20741710D-03  0.84346483D-04 -0.20855523D-05
  0.30098799D-03  0.37124655D-05  0.59266832D-02  0.10689017D-01  0.15760950D-01
  0.94923497D-02  0.65072455D-03 -0.47206873D-04  0.36164167D-02  0.13847896D-02
  0.74105086D-02  0.19524466D-02 -0.37349232D-03  0.27329636D-02  0.29383349D-03
 -0.11705094D-03  0.19386900D-03 -0.47724183D-03 -0.90038719D-03  0.13776290D-02
  0.17770881D-02  0.13189102D-02  0.22245890D-02  0.22673237D-04 -0.81135061D-04
  0.58461824D-04  0.19242789D-03  0.10558285D-03  0.21374846D-03 -0.15297160D-01
 -0.27589059D-01 -0.40680051D-01 -0.31417151D-01 -0.42494161D-02  0.11638977D-05
  0.27312427D-02  0.13052663D-01 -0.86582246D-02  0.15759126D-02  0.58421464D-02
 -0.36602257D-02  0.29544938D-03  0.54966257D-04  0.73708064D-04  0.41758511D-02
 -0.42249386D-02  0.49087549D-04 -0.74041774D-03  0.49149250D-03  0.11048314D-01
  0.28412095D-04 -0.72457335D-05 -0.21166362D-04 -0.18893383D-03  0.10797194D-03
  0.69301647D-04
MO    4     MO 0.0        OCC NO =    2.0000000  ORB. ENERGY =    0.000000
  0.15566253D+00  0.29012936D+00  0.49195510D+00  0.74452174D+00  0.92873218D+00
  0.79699038D+00  0.30520498D+00  0.40073827D-03  0.42996586D-02  0.15849351D-01
  0.46342573D-01  0.55845054D-01 -0.67271286D-01 -0.22519905D-01 -0.15294504D-01
 -0.39525846D-03 -0.26121757D+00 -0.25329317D+00 -0.17087008D+00  0.13423446D+01
  0.13016227D+01  0.87806697D+00  0.19389102D+00  0.18800906D+00  0.12682980D+00
 -0.57965482D-01  0.27450570D+00  0.44320275D-01 -0.88581450D-02  0.23914229D-01
  0.49186617D-02 -0.26518808D-03  0.20422823D-03  0.96275240D-04  0.88177666D-02
 -0.12439863D-02 -0.75737803D-02 -0.54275291D-02  0.12076993D-01 -0.12487868D+00
  0.22495036D-02 -0.49953452D-03 -0.17499691D-02 -0.50097342D-03  0.24687228D-02
 -0.14906774D-01  0.26588290D-04  0.34559764D-04 -0.61148054D-04  0.70623291D-04
  0.91622261D-04  0.13746015D-02  0.16392161D-02  0.64508807D-02 -0.39914260D-03
 -0.42992875D-02 -0.12822180D-01 -0.35435837D-02 -0.61836092D-03 -0.65304625D-02
  0.47410115D-02 -0.11665707D-04  0.47446318D-04  0.11231581D-03  0.42528915D-04
 -0.95106226D-04 -0.63796382D-03 -0.24932191D-03 -0.47232726D-04  0.30101640D-03
  0.12173516D-03  0.81943014D-05 -0.42351435D-01 -0.76382558D-01 -0.11262604D+00
 -0.74120008D-01 -0.81727311D-02  0.10737585D-03 -0.34608204D-02 -0.28051677D-01
 -0.29573161D-01 -0.18608482D-02 -0.93474965D-02 -0.10968182D-01 -0.27179282D-03
  0.21145355D-03 -0.68097723D-04  0.79892539D-02 -0.51670561D-02 -0.28221978D-02
 -0.16790170D-02 -0.13080373D-02 -0.23415423D-01  0.35733391D-04  0.11956896D-03
 -0.15530235D-03 -0.19195403D-03 -0.10166892D-03 -0.50954878D-03  0.28106350D-01
  0.50690960D-01  0.74743790D-01  0.57798838D-01  0.74050858D-02 -0.87004664D-04
 -0.17655083D-02 -0.15101672D-01  0.23145709D-01 -0.11517241D-02 -0.63009482D-02
  0.97804079D-02 -0.26632801D-03  0.16729331D-03  0.28984627D-03 -0.58447894D-02
  0.32565211D-02  0.25882683D-02  0.27157109D-03  0.20601125D-03 -0.17615639D-01
  0.19711648D-04 -0.17730919D-03  0.15759754D-03  0.17285021D-03 -0.77866804D-04
 -0.48254790D-03
MO    5     MO 0.0        OCC NO =    2.0000000  ORB. ENERGY =    0.000000
 -0.84655340D-01 -0.15778363D+00 -0.26754433D+00 -0.40489989D+00 -0.50508069D+00
 -0.43343438D+00 -0.16598234D+00 -0.16846285D-02 -0.18074958D-01 -0.66627700D-01
 -0.19481549D+00 -0.23476213D+00  0.28279587D+00  0.16399558D+00  0.91078820D-01
  0.72316234D-02  0.80959878D-01  0.78503848D-01  0.52958232D-01  0.32361041D+00
  0.31379324D+00  0.21168307D+00  0.35804444D+00  0.34718267D+00  0.23420738D+00
  0.18298389D-01  0.64840693D-01  0.75050170D-01  0.32564237D-02  0.51477364D-02
  0.14060435D-01  0.99827482D-04  0.42140114D-04  0.27158975D-03 -0.12535576D-01
  0.23634277D-01 -0.11098701D-01 -0.36226337D-02 -0.19920601D-02 -0.29610193D-01
 -0.39000609D-02  0.60826632D-02 -0.21826023D-02 -0.77642858D-03 -0.55461997D-03
 -0.22365298D-02 -0.95545449D-04  0.18959118D-03 -0.94045734D-04 -0.23201984D-05
 -0.65409547D-04  0.45690782D-03 -0.29619415D-03  0.17476293D-02  0.23084589D-02
  0.25205227D-03 -0.29352978D-02  0.14129655D-02  0.63653018D-03 -0.23075902D-02
 -0.83383423D-02  0.73246553D-03 -0.12192887D-04  0.18897467D-04 -0.23945326D-03
  0.44061512D-04 -0.37292364D-04 -0.21291286D-04 -0.74828509D-05 -0.19400036D-04
  0.73965107D-03 -0.33547799D-04  0.44788759D-02  0.80778371D-02  0.11910766D-01
 -0.14813608D-01 -0.71218796D-02 -0.93925656D-04  0.12384553D-02  0.88071486D-02
  0.10907656D-01  0.71997122D-03 -0.37137668D-02  0.42187043D-03  0.11097409D-03
 -0.48084101D-03  0.12799820D-03  0.35370565D-03 -0.15417635D-02  0.11880578D-02
  0.68110648D-03  0.43925174D-03  0.68396903D-03  0.14527511D-03 -0.19793316D-03
  0.52658049D-04  0.70087278D-04  0.33201725D-04 -0.19943145D-03  0.22600271D-01
  0.40760520D-01  0.60101362D-01  0.18131790D-01 -0.32443853D-02 -0.13610848D-03
  0.29603922D-02 -0.21675741D-01  0.24481527D-01  0.88373502D-03 -0.50140615D-03
  0.56952489D-02  0.85663522D-04  0.53975133D-03  0.25221484D-03 -0.33255805D-02
  0.11590857D-02  0.21664948D-02 -0.14178299D-02  0.12968113D-02 -0.12023352D-01
  0.15688567D-03 -0.26465508D-03  0.10776941D-03 -0.33832960D-04  0.32774946D-04
 -0.28490716D-04
END DATA
 TOTAL ENERGY =    -76.465312553001 THE VIRIAL(-V/T)=   2.00526889
