 86
GAUSSIAN              5 MOL ORBITALS    126 PRIMITIVES        3 NUCLEI   B3LYP
  O    1    (CENTRE  1)   0.00000000  0.00000000  0.00815606  CHARGE =  8.0
  H    2    (CENTRE  2)   0.00000000 -1.44255835 -1.09730160  CHARGE =  1.0
  H    3    (CENTRE  3)   0.09448631  1.44255835 -1.19178791  CHARGE =  1.0
CENTRE ASSIGNMENTS    1  1  1  1  1  1  1  1  1  1  1  1  1  1  1  1  1  1  1  1
CENTRE ASSIGNMENTS    1  1  1  1  1  1  1  1  1  1  1  1  1  1  1  1  1  1  1  1
CENTRE ASSIGNMENTS    1  1  1  1  1  1  1  1  1  1  1  1  1  1  1  1  1  1  1  1
CENTRE ASSIGNMENTS    1  1  1  1  1  1  1  1  1  1  1  1  2  2  2  2  2  2  2  2
CENTRE ASSIGNMENTS    2  2  2  2  2  2  2  2  2  2  2  2  2  2  2  2  2  2  2  3
CENTRE ASSIGNMENTS    3  3  3  3  3  3  3  3  3  3  3  3  3  3  3  3  3  3  3  3
CENTRE ASSIGNMENTS    3  3  3  3  3  3
TYPE ASSIGNMENTS      1  1  1  1  1  1  1  1  1  1  1  1  1  1  1  1  2  2  2  3
TYPE ASSIGNMENTS      3  3  4  4  4  2  3  4  2  3  4  2  3  4  5  6  7  8  9 10
TYPE ASSIGNMENTS      5  6  7  8  9 10  5  6  7  8  9 10 11 12 13 17 14 15 18 19
TYPE ASSIGNMENTS     16 20 11 12 13 17 14 15 18 19 16 20  1  1  1  1  1  1  2  3
TYPE ASSIGNMENTS      4  2  3  4  2  3  4  5  6  7  8  9 10  5  6  7  8  9 10  1
TYPE ASSIGNMENTS      1  1  1  1  1  2  3  4  2  3  4  2  3  4  5  6  7  8  9 10
TYPE ASSIGNMENTS      5  6  7  8  9 10
EXPONENTS  0.1533000D+05 0.2299000D+04 0.5224000D+03 0.1473000D+03 0.4755000D+02
EXPONENTS  0.1676000D+02 0.6207000D+01 0.5224000D+03 0.1473000D+03 0.4755000D+02
EXPONENTS  0.1676000D+02 0.6207000D+01 0.6882000D+00 0.1752000D+01 0.2384000D+00
EXPONENTS  0.7376000D-01 0.3446000D+02 0.7749000D+01 0.2280000D+01 0.3446000D+02
EXPONENTS  0.7749000D+01 0.2280000D+01 0.3446000D+02 0.7749000D+01 0.2280000D+01
EXPONENTS  0.7156000D+00 0.7156000D+00 0.7156000D+00 0.2140000D+00 0.2140000D+00
EXPONENTS  0.2140000D+00 0.5974000D-01 0.5974000D-01 0.5974000D-01 0.2314000D+01
EXPONENTS  0.2314000D+01 0.2314000D+01 0.2314000D+01 0.2314000D+01 0.2314000D+01
EXPONENTS  0.6450000D+00 0.6450000D+00 0.6450000D+00 0.6450000D+00 0.6450000D+00
EXPONENTS  0.6450000D+00 0.2140000D+00 0.2140000D+00 0.2140000D+00 0.2140000D+00
EXPONENTS  0.2140000D+00 0.2140000D+00 0.1428000D+01 0.1428000D+01 0.1428000D+01
EXPONENTS  0.1428000D+01 0.1428000D+01 0.1428000D+01 0.1428000D+01 0.1428000D+01
EXPONENTS  0.1428000D+01 0.1428000D+01 0.5000000D+00 0.5000000D+00 0.5000000D+00
EXPONENTS  0.5000000D+00 0.5000000D+00 0.5000000D+00 0.5000000D+00 0.5000000D+00
EXPONENTS  0.5000000D+00 0.5000000D+00 0.3387000D+02 0.5095000D+01 0.1159000D+01
EXPONENTS  0.3258000D+00 0.1027000D+00 0.2526000D-01 0.1407000D+01 0.1407000D+01
EXPONENTS  0.1407000D+01 0.3880000D+00 0.3880000D+00 0.3880000D+00 0.1020000D+00
EXPONENTS  0.1020000D+00 0.1020000D+00 0.1057000D+01 0.1057000D+01 0.1057000D+01
EXPONENTS  0.1057000D+01 0.1057000D+01 0.1057000D+01 0.2470000D+00 0.2470000D+00
EXPONENTS  0.2470000D+00 0.2470000D+00 0.2470000D+00 0.2470000D+00 0.3387000D+02
EXPONENTS  0.5095000D+01 0.1159000D+01 0.3258000D+00 0.1027000D+00 0.2526000D-01
EXPONENTS  0.1407000D+01 0.1407000D+01 0.1407000D+01 0.3880000D+00 0.3880000D+00
EXPONENTS  0.3880000D+00 0.1020000D+00 0.1020000D+00 0.1020000D+00 0.1057000D+01
EXPONENTS  0.1057000D+01 0.1057000D+01 0.1057000D+01 0.1057000D+01 0.1057000D+01
EXPONENTS  0.2470000D+00 0.2470000D+00 0.2470000D+00 0.2470000D+00 0.2470000D+00
EXPONENTS  0.2470000D+00
MO    1     MO 0.0        OCC NO =    2.0000000  ORB. ENERGY =    0.000000
 -0.19693858D+00 -0.36706114D+00 -0.62240374D+00 -0.94194188D+00 -0.11749983D+01
 -0.10083233D+01 -0.38613426D+00 -0.93175045D-03 -0.99970709D-02 -0.36851086D-01
 -0.10775041D+00 -0.12984449D+00  0.15641144D+00  0.72229548D-01  0.86398698D-02
 -0.36432269D-02  0.17477481D+00  0.16947278D+00  0.11432534D+00  0.35383091D-02
  0.34309696D-02  0.23145118D-02 -0.10952992D+01 -0.10620718D+01 -0.71646735D+00
  0.39284794D-01  0.29841044D-02 -0.24100874D+00  0.59956795D-02  0.12328533D-02
 -0.26986074D-01  0.17807403D-03  0.89906191D-05 -0.51206468D-03 -0.41023343D-01
  0.10585253D-01  0.30438090D-01  0.29507840D-02 -0.11127002D-01  0.27014096D-03
 -0.75104950D-02 -0.17865400D-02  0.92970350D-02  0.40322645D-03 -0.28230668D-02
 -0.14132642D-02  0.46311742D-03 -0.92556399D-03  0.46244657D-03 -0.69258812D-04
 -0.10643953D-03 -0.29420280D-03 -0.14556167D-02 -0.75741334D-04 -0.30419907D-03
  0.22107645D-02 -0.49208491D-03  0.16070032D-01  0.21560857D-02  0.71930891D-03
 -0.15157435D-01 -0.20869080D-02 -0.61399671D-04 -0.44322674D-04 -0.58223445D-03
  0.92800741D-05 -0.17279070D-03  0.53046972D-03  0.17491894D-03  0.30575872D-03
  0.12162336D-02 -0.29808466D-04  0.30587526D-01  0.55165862D-01  0.81342031D-01
  0.47749901D-01  0.48262598D-02  0.37070049D-04  0.23611541D-02  0.30837488D-01
  0.10089291D-01  0.12380280D-02  0.10172340D-01  0.15449066D-02  0.18078369D-03
 -0.33930155D-05 -0.72310537D-03 -0.45146636D-02  0.64698686D-02 -0.19552050D-02
  0.11367733D-02  0.80441748D-03  0.11122222D-01 -0.46522119D-04  0.13848351D-03
 -0.91961390D-04  0.11975352D-03  0.50478776D-04 -0.35570540D-03  0.31202420D-01
  0.56274849D-01  0.82977231D-01  0.48255614D-01  0.54731743D-02  0.33497710D-04
  0.35146311D-03 -0.27933525D-01  0.10888794D-01  0.51508620D-03 -0.96619600D-02
  0.23217134D-02  0.16884411D-03 -0.52810987D-04 -0.66009704D-03 -0.41606248D-02
  0.53428534D-02 -0.11822286D-02  0.20274247D-03  0.83315821D-04 -0.10479154D-01
 -0.14544875D-03  0.17204238D-03 -0.26593632D-04 -0.66759415D-04  0.46977669D-04
  0.81726782D-04
MO    2     MO 0.0        OCC NO =    2.0000000  ORB. ENERGY =    0.000000
 -0.13504095D-03 -0.25169412D-03 -0.42678275D-03 -0.64589032D-03 -0.80569726D-03
 -0.69140812D-03 -0.26477258D-03 -0.15223264D-03 -0.16333563D-02 -0.60208590D-02
 -0.17604638D-01 -0.21214445D-01  0.25555048D-01  0.15117351D-01  0.15958696D-01
  0.16667070D-02  0.17398687D+00  0.16870874D+00  0.11380992D+00  0.14514103D+01
  0.14073797D+01  0.94941005D+00  0.14738755D+00  0.14291634D+00  0.96410520D-01
  0.38697725D-01  0.30398030D+00  0.29712902D-01  0.58588440D-02  0.30597049D-01
  0.31130290D-02  0.17001824D-03  0.32997252D-03  0.67978468D-04  0.37640596D-02
 -0.24559732D-02 -0.13080864D-02  0.49108644D-02 -0.93373044D-02 -0.13647977D+00
 -0.21859391D-03  0.10346948D-02 -0.81610088D-03  0.87666136D-03 -0.20246284D-02
 -0.19843364D-01 -0.22319271D-03  0.26209818D-03 -0.38905475D-04  0.15621819D-04
 -0.99713192D-04  0.51498098D-03 -0.12541547D-02  0.63620731D-02  0.61968440D-03
  0.32306505D-02 -0.15466559D-01 -0.93973073D-03  0.53181362D-03 -0.36196602D-02
 -0.91932247D-03 -0.99092164D-03 -0.74095001D-04  0.96459380D-04  0.11009009D-03
  0.14808437D-03 -0.10233981D-02  0.15553364D-03  0.74200633D-04  0.73401998D-03
 -0.48580392D-03 -0.21991564D-03 -0.38592526D-01 -0.69603209D-01 -0.10262989D+00
 -0.73640371D-01 -0.93905699D-02  0.10745432D-03  0.22866533D-02 -0.21217200D-01
 -0.26398104D-01  0.11931952D-02 -0.84994392D-02 -0.10801436D-01  0.16923512D-03
  0.31121886D-03 -0.68951374D-04  0.71957249D-02 -0.39129958D-02 -0.32827291D-02
  0.10966939D-02  0.88967755D-03 -0.20962810D-01  0.83142446D-04  0.13701992D-03
 -0.22016237D-03  0.12082443D-03  0.69103127D-04 -0.50396782D-03  0.34892929D-01
  0.62930834D-01  0.92791478D-01  0.60542516D-01  0.70924566D-02 -0.15339267D-03
  0.14530973D-03 -0.15694357D-01  0.26766842D-01  0.35048802D-03 -0.49899456D-02
  0.10723435D-01  0.14826221D-03  0.36392998D-03  0.28895216D-03 -0.60754007D-02
  0.14892148D-02  0.45861859D-02  0.37134342D-03 -0.76868590D-03 -0.18255206D-01
 -0.13077753D-03 -0.14493469D-03  0.27571222D-03 -0.55585685D-04 -0.16214869D-05
 -0.77328612D-03
MO    3     MO 0.0        OCC NO =    2.0000000  ORB. ENERGY =    0.000000
  0.35315759D+00  0.65822769D+00  0.11161175D+01  0.16891252D+01  0.21070506D+01
  0.18081629D+01  0.69243032D+00  0.94599187D-04  0.10149872D-02  0.37414339D-02
  0.10939733D-01  0.13182911D-01 -0.15880213D-01  0.31904924D-01 -0.13665142D-01
 -0.21270592D-02  0.12256066D+01  0.11884261D+01  0.80170525D+00 -0.10859975D+00
 -0.10530522D+00 -0.71038281D-01 -0.29007541D+00 -0.28127558D+00 -0.18974684D+00
  0.27670985D+00 -0.23484453D-01 -0.61485851D-01  0.45696080D-01 -0.28962217D-02
 -0.70756981D-02  0.14731651D-02 -0.67195015D-04 -0.11211006D-03 -0.82859447D-02
  0.12002019D-02  0.70857428D-02 -0.24866560D-02 -0.50354030D-01  0.87095370D-02
 -0.41769393D-03 -0.16961066D-02  0.21138006D-02 -0.29789963D-03 -0.13271330D-01
  0.15398618D-02  0.23241453D-03 -0.32707215D-03  0.94657619D-04  0.21533605D-04
 -0.90222681D-03 -0.91932760D-05 -0.73320452D-02 -0.77644359D-03  0.86636572D-04
  0.14543180D-01  0.25317798D-02  0.31240301D-02  0.74529556D-02 -0.20244906D-03
 -0.33839398D-02 -0.29684165D-03 -0.30791580D-03 -0.19072678D-04 -0.21304467D-03
  0.44970797D-03  0.87919032D-04 -0.21816788D-03  0.47403943D-03 -0.30700997D-04
  0.85730191D-03 -0.23539064D-03  0.73550731D-02  0.13265177D-01  0.19559496D-01
  0.14680962D-01  0.22551051D-02  0.18907798D-04  0.17047394D-01  0.52850563D-02
  0.14308640D-02  0.92625800D-02  0.23168005D-02  0.45468353D-03  0.14245614D-02
 -0.39133907D-04 -0.18494095D-03 -0.42397356D-03  0.80495059D-03 -0.38097704D-03
  0.85142535D-02  0.62550279D-02  0.70339300D-03 -0.15219158D-04  0.10518151D-04
  0.47010077D-05  0.88128151D-03  0.53974351D-03 -0.80807361D-04  0.40812411D-02
  0.73606865D-02  0.10853328D-01  0.90833913D-02  0.18603017D-02  0.39480397D-04
  0.15589485D-01 -0.45514764D-02 -0.53599283D-03  0.84910965D-02 -0.25696541D-02
 -0.82255024D-04  0.13478310D-02 -0.14491463D-03 -0.15877497D-03 -0.53467099D-03
  0.11774767D-02 -0.64280572D-03 -0.76333696D-02  0.61880210D-02  0.12868089D-04
 -0.89993251D-04  0.10175277D-03 -0.11759522D-04 -0.77137631D-03  0.50224513D-03
  0.16334817D-04
MO    4     MO 0.0        OCC NO =    2.0000000  ORB. ENERGY =    0.000000
 -0.27239364D+00 -0.50769695D+00 -0.86087152D+00 -0.13028375D+01 -0.16251871D+01
 -0.13946523D+01 -0.53407774D+00 -0.68219756D-03 -0.73195321D-02 -0.26981174D-01
 -0.78891369D-01 -0.95067935D-01  0.11451940D+00  0.38635330D-01  0.58847814D-01
  0.69343803D-02  0.11062477D+01  0.10726881D+01  0.72362908D+00 -0.18263243D+00
 -0.17709203D+00 -0.11946524D+00  0.89252540D+00  0.86544940D+00  0.58382706D+00
  0.25033344D+00 -0.39067603D-01  0.19225374D+00  0.41744809D-01 -0.46094271D-02
  0.25485484D-01  0.13648524D-02 -0.74203890D-04  0.50391750D-03  0.17976829D-01
  0.67069338D-02 -0.24683763D-01 -0.38844505D-02 -0.42622892D-01  0.14548183D-01
  0.14790395D-02  0.53664976D-02 -0.68455371D-02  0.11007874D-04 -0.11623729D-01
  0.21109586D-02 -0.36891301D-03  0.72307452D-03 -0.35416151D-03  0.12019834D-03
 -0.86193337D-03  0.39396049D-04 -0.63689944D-02 -0.11550344D-02  0.18527640D-02
  0.13331046D-01  0.30535062D-02 -0.98710550D-02  0.57759369D-02  0.41159705D-03
  0.43127630D-02  0.10118951D-02 -0.29235312D-03 -0.15593322D-04  0.35682675D-03
  0.49142262D-03  0.20316217D-03 -0.72068790D-04  0.38563675D-03 -0.15638221D-03
 -0.99841145D-03 -0.32400994D-03 -0.43749399D-02 -0.78903843D-02 -0.11634367D-01
 -0.18645962D-01 -0.52099385D-02 -0.10987587D-03  0.15421873D-01 -0.52792051D-02
  0.97138992D-02  0.83947295D-02 -0.57214886D-02  0.28108672D-02  0.13021534D-02
 -0.34897300D-03  0.61428993D-03  0.14888098D-03 -0.29776937D-02  0.28288127D-02
  0.77147695D-02  0.57251161D-02  0.18965318D-02  0.87133052D-04 -0.21722423D-03
  0.13009117D-03  0.79666553D-03  0.51833403D-03  0.27120868D-03 -0.12897070D-01
 -0.23260397D-01 -0.34297442D-01 -0.33551817D-01 -0.74618480D-02 -0.89005435D-04
  0.14963946D-01  0.82106463D-02  0.29134555D-02  0.83099273D-02  0.68395812D-02
 -0.22923557D-03  0.12586679D-02  0.28807935D-03  0.49972491D-03  0.12693321D-02
 -0.30180448D-02  0.17487128D-02 -0.76939793D-02  0.58838876D-02  0.29236894D-02
  0.11955565D-03 -0.17958547D-03  0.60029820D-04 -0.75760441D-03  0.48451834D-03
  0.15460059D-05
MO    5     MO 0.0        OCC NO =    2.0000000  ORB. ENERGY =    0.000000
  0.14690099D+00  0.27379929D+00  0.46426518D+00  0.70261598D+00  0.87645805D+00
  0.75213140D+00  0.28802637D+00 -0.13015038D-02 -0.13964281D-01 -0.51474970D-01
 -0.15050979D+00 -0.18137162D+00  0.21848134D+00  0.15206355D+00  0.87151715D-01
  0.82401458D-02 -0.65202382D+00 -0.63224377D+00 -0.42650791D+00 -0.72981155D-01
 -0.70767171D-01 -0.47739115D-01  0.67183490D+00  0.65145387D+00  0.43946693D+00
 -0.14687600D+00 -0.15102655D-01  0.14294958D+00 -0.24130126D-01 -0.12321066D-02
  0.20333016D-01 -0.76664048D-03  0.13372813D-05  0.36288299D-03  0.10557550D-02
  0.16025790D-01 -0.17081545D-01  0.19879680D-02  0.26987721D-01  0.83997025D-02
 -0.19495310D-02  0.64147292D-02 -0.44651982D-02  0.57951758D-03  0.69281322D-02
  0.61278723D-03 -0.34360025D-03  0.56558262D-03 -0.22198237D-03  0.29567339D-04
  0.45585822D-03 -0.30004870D-04  0.38478199D-02 -0.35345086D-03  0.24221601D-02
 -0.73541663D-02  0.39351225D-03 -0.27268051D-02 -0.41892936D-02  0.66684032D-03
 -0.45396752D-02 -0.78384192D-04  0.16479561D-03  0.10907702D-04  0.64118143D-04
 -0.24340863D-03 -0.21855867D-04 -0.49652229D-04 -0.25097819D-03 -0.10867240D-04
 -0.14270220D-03  0.15334204D-03  0.43524896D-02  0.78498943D-02  0.11574665D-01
 -0.11643821D-01 -0.62319069D-02 -0.13486440D-03 -0.90934478D-02  0.47006799D-02
  0.14184527D-01 -0.49504131D-02 -0.45175428D-02  0.24670742D-02 -0.75442551D-03
 -0.46698426D-03  0.36029942D-03  0.15435677D-04 -0.22899755D-02  0.22745398D-02
 -0.45557367D-02 -0.33095463D-02  0.20267722D-02  0.11730151D-03 -0.20561371D-03
  0.88312193D-04 -0.47154969D-03 -0.27314860D-03  0.79576150D-04 -0.17764572D-02
 -0.32039137D-02 -0.47241688D-02 -0.21034855D-01 -0.74576215D-02 -0.11321677D-03
 -0.84539453D-02 -0.86746959D-03  0.96505717D-02 -0.42324193D-02  0.56495325D-02
  0.72448365D-03 -0.68490476D-03  0.49317356D-03  0.30243173D-03  0.12124984D-02
 -0.28602408D-02  0.16477424D-02  0.36412024D-02 -0.31482770D-02  0.14529759D-02
  0.17757316D-03 -0.23121806D-03  0.53644894D-04  0.37085490D-03 -0.24680195D-03
  0.87212374D-04
END DATA
 TOTAL ENERGY =    -76.465217104367 THE VIRIAL(-V/T)=   2.00665166
