 87
GAUSSIAN              5 MOL ORBITALS    126 PRIMITIVES        3 NUCLEI   B3LYP
  O    1    (CENTRE  1)   0.00000000  0.00000000  0.00815606  CHARGE =  8.0
  H    2    (CENTRE  2)   0.00000000 -1.44255835 -1.09730160  CHARGE =  1.0
  H    3    (CENTRE  3)   0.00000000  1.53704465 -1.00281530  CHARGE =  1.0
CENTRE ASSIGNMENTS    1  1  1  1  1  1  1  1  1  1  1  1  1  1  1  1  1  1  1  1
CENTRE ASSIGNMENTS    1  1  1  1  1  1  1  1  1  1  1  1  1  1  1  1  1  1  1  1
CENTRE ASSIGNMENTS    1  1  1  1  1  1  1  1  1  1  1  1  1  1  1  1  1  1  1  1
CENTRE ASSIGNMENTS    1  1  1  1  1  1  1  1  1  1  1  1  2  2  2  2  2  2  2  2
CENTRE ASSIGNMENTS    2  2  2  2  2  2  2  2  2  2  2  2  2  2  2  2  2  2  2  3
CENTRE ASSIGNMENTS    3  3  3  3  3  3  3  3  3  3  3  3  3  3  3  3  3  3  3  3
CENTRE ASSIGNMENTS    3  3  3  3  3  3
TYPE ASSIGNMENTS      1  1  1  1  1  1  1  1  1  1  1  1  1  1  1  1  2  2  2  3
TYPE ASSIGNMENTS      3  3  4  4  4  2  3  4  2  3  4  2  3  4  5  6  7  8  9 10
TYPE ASSIGNMENTS      5  6  7  8  9 10  5  6  7  8  9 10 11 12 13 17 14 15 18 19
TYPE ASSIGNMENTS     16 20 11 12 13 17 14 15 18 19 16 20  1  1  1  1  1  1  2  3
TYPE ASSIGNMENTS      4  2  3  4  2  3  4  5  6  7  8  9 10  5  6  7  8  9 10  1
TYPE ASSIGNMENTS      1  1  1  1  1  2  3  4  2  3  4  2  3  4  5  6  7  8  9 10
TYPE ASSIGNMENTS      5  6  7  8  9 10
EXPONENTS  0.1533000D+05 0.2299000D+04 0.5224000D+03 0.1473000D+03 0.4755000D+02
EXPONENTS  0.1676000D+02 0.6207000D+01 0.5224000D+03 0.1473000D+03 0.4755000D+02
EXPONENTS  0.1676000D+02 0.6207000D+01 0.6882000D+00 0.1752000D+01 0.2384000D+00
EXPONENTS  0.7376000D-01 0.3446000D+02 0.7749000D+01 0.2280000D+01 0.3446000D+02
EXPONENTS  0.7749000D+01 0.2280000D+01 0.3446000D+02 0.7749000D+01 0.2280000D+01
EXPONENTS  0.7156000D+00 0.7156000D+00 0.7156000D+00 0.2140000D+00 0.2140000D+00
EXPONENTS  0.2140000D+00 0.5974000D-01 0.5974000D-01 0.5974000D-01 0.2314000D+01
EXPONENTS  0.2314000D+01 0.2314000D+01 0.2314000D+01 0.2314000D+01 0.2314000D+01
EXPONENTS  0.6450000D+00 0.6450000D+00 0.6450000D+00 0.6450000D+00 0.6450000D+00
EXPONENTS  0.6450000D+00 0.2140000D+00 0.2140000D+00 0.2140000D+00 0.2140000D+00
EXPONENTS  0.2140000D+00 0.2140000D+00 0.1428000D+01 0.1428000D+01 0.1428000D+01
EXPONENTS  0.1428000D+01 0.1428000D+01 0.1428000D+01 0.1428000D+01 0.1428000D+01
EXPONENTS  0.1428000D+01 0.1428000D+01 0.5000000D+00 0.5000000D+00 0.5000000D+00
EXPONENTS  0.5000000D+00 0.5000000D+00 0.5000000D+00 0.5000000D+00 0.5000000D+00
EXPONENTS  0.5000000D+00 0.5000000D+00 0.3387000D+02 0.5095000D+01 0.1159000D+01
EXPONENTS  0.3258000D+00 0.1027000D+00 0.2526000D-01 0.1407000D+01 0.1407000D+01
EXPONENTS  0.1407000D+01 0.3880000D+00 0.3880000D+00 0.3880000D+00 0.1020000D+00
EXPONENTS  0.1020000D+00 0.1020000D+00 0.1057000D+01 0.1057000D+01 0.1057000D+01
EXPONENTS  0.1057000D+01 0.1057000D+01 0.1057000D+01 0.2470000D+00 0.2470000D+00
EXPONENTS  0.2470000D+00 0.2470000D+00 0.2470000D+00 0.2470000D+00 0.3387000D+02
EXPONENTS  0.5095000D+01 0.1159000D+01 0.3258000D+00 0.1027000D+00 0.2526000D-01
EXPONENTS  0.1407000D+01 0.1407000D+01 0.1407000D+01 0.3880000D+00 0.3880000D+00
EXPONENTS  0.3880000D+00 0.1020000D+00 0.1020000D+00 0.1020000D+00 0.1057000D+01
EXPONENTS  0.1057000D+01 0.1057000D+01 0.1057000D+01 0.1057000D+01 0.1057000D+01
EXPONENTS  0.2470000D+00 0.2470000D+00 0.2470000D+00 0.2470000D+00 0.2470000D+00
EXPONENTS  0.2470000D+00
MO    1     MO 0.0        OCC NO =    2.0000000  ORB. ENERGY =    0.000000
  0.77465095D-01  0.14438220D+00  0.24482031D+00  0.37050951D+00  0.46218140D+00
  0.39662041D+00  0.15188454D+00 -0.10958881D-03 -0.11758161D-02 -0.43342794D-02
 -0.12673179D-01 -0.15271797D-01  0.18396497D-01  0.20423083D-01  0.26743931D-02
 -0.18190026D-03  0.17553064D+01  0.17020568D+01  0.11481975D+01 -0.10799887D-01
 -0.10472258D-01 -0.70645231D-02 -0.97831122D-01 -0.94863279D-01 -0.63994208D-01
  0.39650297D+00 -0.21521087D-02 -0.21405249D-01  0.65330875D-01 -0.16029855D-03
 -0.23551478D-02  0.21108176D-02 -0.90852268D-06 -0.49672373D-04 -0.45159589D-02
  0.22486614D-02  0.22672975D-02  0.14982852D-02 -0.69571435D-01  0.14480855D-02
 -0.71396805D-03 -0.41596183D-04  0.75556423D-03  0.71757880D-03 -0.18017112D-01
  0.87503665D-04  0.54788035D-04 -0.98275683D-04  0.43487648D-04  0.85596987D-04
 -0.12203468D-02 -0.30509280D-04 -0.10437086D-01  0.18140216D-04  0.21571328D-03
  0.23460713D-01  0.90668572D-04  0.16859716D-02  0.78505452D-02 -0.14508922D-03
 -0.23331114D-02  0.12756817D-02 -0.37623268D-03 -0.13598047D-04 -0.79634948D-04
  0.58629717D-03  0.26851264D-05 -0.21261300D-04  0.54240086D-03  0.38109015D-04
  0.26016614D-03 -0.15650080D-03  0.34586389D-02  0.62377977D-02  0.91976291D-02
  0.50121771D-02  0.39126806D-03 -0.51546830D-06  0.24369195D-01  0.32057354D-02
  0.14457945D-02  0.13347603D-01  0.85940680D-03  0.19328506D-03  0.20702044D-02
 -0.20580938D-04 -0.78772640D-04 -0.28501206D-03  0.42852574D-03 -0.14351368D-03
  0.12109732D-01  0.91139861D-02  0.78497108D-03 -0.55848675D-06  0.10767142D-04
 -0.10208655D-04  0.12891133D-02  0.83070186D-03 -0.41926434D-04  0.26785054D-02
  0.48307948D-02  0.71230042D-02  0.36353248D-02  0.26331547D-03  0.26838095D-05
  0.23704321D-01 -0.27582786D-02  0.69456877D-03  0.13000726D-01 -0.71813309D-03
 -0.39717628D-04  0.20327264D-02  0.15733302D-04 -0.76458762D-04 -0.14878335D-03
  0.36686591D-03 -0.21808256D-03 -0.12433364D-01  0.80250299D-02 -0.29587680D-03
 -0.43434163D-05  0.13082278D-04 -0.87388621D-05 -0.13047042D-02  0.70207014D-03
  0.46273315D-04
MO    2     MO 0.0        OCC NO =    2.0000000  ORB. ENERGY =    0.000000
  0.39548560D+00  0.73712013D+00  0.12498908D+01  0.18915768D+01  0.23595929D+01
  0.20248818D+01  0.77542214D+00  0.74300099D-04  0.79719130D-03  0.29385972D-02
  0.85922859D-02  0.10354122D-01 -0.12472638D-01  0.38953032D-01  0.25733478D-02
  0.57734940D-03 -0.22456626D+00 -0.21775373D+00 -0.14689538D+00  0.87043382D+00
  0.84402801D+00  0.56937631D+00  0.11824217D+00  0.11465513D+00  0.77345673D-01
 -0.50726863D-01  0.18008336D+00  0.25836889D-01 -0.83581477D-02  0.16452685D-01
  0.26321946D-02 -0.27004881D-03  0.15619703D-03  0.44718732D-04  0.11784759D-02
  0.38321555D-02 -0.50106314D-02 -0.19168408D-03  0.89006664D-02 -0.79618483D-01
  0.47779424D-03  0.50919826D-03 -0.98699250D-03 -0.91803907D-04  0.23050309D-02
 -0.10520959D-01 -0.49618910D-04  0.53597660D-04 -0.39787502D-05 -0.10950906D-04
  0.15612586D-03  0.70149884D-03  0.13352754D-02  0.44284747D-02  0.27485413D-03
 -0.30014615D-02 -0.91820327D-02 -0.50815807D-03 -0.10043646D-02 -0.41033913D-02
 -0.31640432D-03 -0.16320516D-03  0.48133571D-04  0.80202346D-04 -0.58195278D-04
 -0.75008307D-04 -0.51359944D-03 -0.20585402D-03 -0.69392405D-04  0.27299241D-03
  0.38043985D-03  0.20022031D-04 -0.24807792D-01 -0.44741875D-01 -0.65971868D-01
 -0.46280325D-01 -0.55937814D-02  0.62401911D-04 -0.31176887D-02 -0.15606683D-01
 -0.17185305D-01 -0.17076342D-02 -0.59875244D-02 -0.69873611D-02 -0.26485293D-03
  0.11887220D-03 -0.69936191D-04  0.54048801D-02 -0.36098600D-02 -0.17950200D-02
 -0.15492663D-02 -0.11660037D-02 -0.15568965D-01  0.18771896D-04  0.10078087D-03
 -0.11955277D-03 -0.16492354D-03 -0.10627638D-03 -0.33660165D-03  0.20535052D-01
  0.37035812D-01  0.54609283D-01  0.37428290D-01  0.43237144D-02 -0.75429719D-04
 -0.30326276D-02 -0.11378997D-01  0.14636561D-01 -0.16632563D-02 -0.37849221D-02
  0.58754692D-02 -0.26005816D-03  0.18471151D-03  0.15092488D-03 -0.31769893D-02
  0.18672902D-02  0.13096990D-02  0.15906705D-02 -0.10266874D-02 -0.97948446D-02
 -0.26875943D-05 -0.10071512D-03  0.10340271D-03  0.16691817D-03 -0.89819798D-04
 -0.41129485D-03
MO    3     MO 0.0        OCC NO =    2.0000000  ORB. ENERGY =    0.000000
 -0.30351910D+00 -0.56570970D+00 -0.95924029D+00 -0.14517082D+01 -0.18108915D+01
 -0.15540143D+01 -0.59510494D+00 -0.24145534D-03 -0.25906574D-02 -0.95496509D-02
 -0.27922619D-01 -0.33648114D-01  0.40532719D-01 -0.11146600D-01  0.12210205D-01
  0.92160431D-03  0.18152898D+00  0.17602205D+00  0.11874344D+00  0.11621856D+01
  0.11269291D+01  0.76021972D+00  0.93635174D-01  0.90794622D-01  0.61249516D-01
  0.41005251D-01  0.24113762D+00  0.18230011D-01  0.67563402D-02  0.22199125D-01
  0.22910130D-02  0.21829497D-03  0.21501556D-03  0.42119216D-04  0.14562150D-03
  0.48060769D-02 -0.49516984D-02  0.15494855D-03 -0.71948872D-02 -0.10664581D+00
 -0.76873331D-03  0.16643883D-02 -0.89565501D-03  0.74210034D-04 -0.18632804D-02
 -0.14303617D-01 -0.90155738D-04  0.78524637D-04  0.11631101D-04  0.88522060D-05
 -0.12620493D-03  0.88483649D-03 -0.10793749D-02  0.58676524D-02 -0.12971190D-03
  0.24262427D-02 -0.12505682D-01 -0.85415609D-03  0.81188188D-03 -0.50972750D-02
  0.12432918D-02  0.13192750D-03 -0.38908953D-04  0.14135766D-03  0.11344853D-03
  0.60633247D-04 -0.70737185D-03  0.19267741D-03  0.56093612D-04  0.28329887D-03
 -0.53302299D-03 -0.16184884D-04 -0.28719696D-01 -0.51797154D-01 -0.76374873D-01
 -0.55461883D-01 -0.70151652D-02  0.79913260D-04  0.25201954D-02 -0.15324339D-01
 -0.19731410D-01  0.13803725D-02 -0.59753059D-02 -0.81352139D-02  0.21409486D-03
  0.20394596D-03 -0.74104615D-04  0.49237119D-02 -0.26214422D-02 -0.23022698D-02
  0.12523553D-02  0.94254348D-03 -0.14550998D-01  0.76298991D-05  0.15048375D-03
 -0.15811365D-03  0.13331656D-03  0.85908912D-04 -0.40304259D-03  0.31636578D-01
  0.57057871D-01  0.84131797D-01  0.55391151D-01  0.60225462D-02 -0.11028782D-03
  0.24514359D-02 -0.20280852D-01  0.21939306D-01  0.13444995D-02 -0.67392392D-02
  0.86318759D-02  0.21021899D-03  0.23451207D-03  0.20006099D-03 -0.62501151D-02
  0.48048422D-02  0.14452728D-02 -0.12858245D-02  0.82992662D-03 -0.18174995D-01
 -0.16681425D-04 -0.12589991D-03  0.14258133D-03 -0.13492893D-03  0.72606172D-04
 -0.57599346D-03
MO    4     MO 0.0        OCC NO =    2.0000000  ORB. ENERGY =    0.000000
 -0.45055285D-02 -0.83975643D-02 -0.14239250D-01 -0.21549591D-01 -0.26881416D-01
 -0.23068255D-01 -0.88339160D-02  0.23136864D-03  0.24824337D-02  0.91507180D-02
  0.26756163D-01  0.32242477D-01 -0.38839480D-01 -0.23897119D-01  0.38391053D-01
  0.83329631D-02  0.15964374D+00  0.15480073D+00  0.10442766D+00 -0.96684270D-01
 -0.93751219D-01 -0.63244018D-01  0.15313946D+01  0.14849376D+01  0.10017301D+01
  0.36061633D-01 -0.21510520D-01  0.33408460D+00  0.59417917D-02 -0.27241349D-02
  0.40896478D-01  0.19197720D-03 -0.43183616D-04  0.84625426D-03  0.44511374D-01
 -0.72941128D-02 -0.37217261D-01  0.13626786D-03 -0.63274673D-02  0.51321487D-02
  0.63117656D-02  0.51087686D-02 -0.11420534D-01  0.65263227D-04 -0.16386422D-02
  0.21635878D-02 -0.76516449D-03  0.14182250D-02 -0.65306047D-03  0.77849787D-05
 -0.11098959D-03  0.25854086D-03 -0.94924477D-03 -0.93756950D-03  0.21923201D-03
  0.21337334D-02  0.13434717D-02 -0.18360587D-01  0.71400091D-03  0.14692368D-02
  0.17702891D-01  0.11602224D-03 -0.34218066D-04  0.88499946D-04  0.59838984D-03
  0.53323266D-04  0.79569095D-04 -0.20343548D-03  0.49330932D-04 -0.34506893D-03
 -0.15917340D-02 -0.14233625D-04 -0.29115863D-01 -0.52511659D-01 -0.77428410D-01
 -0.55502826D-01 -0.85332892D-02 -0.11029888D-03  0.22163591D-02 -0.28913140D-01
 -0.18652578D-02  0.12139540D-02 -0.12913448D-01  0.35416437D-03  0.18828346D-03
 -0.29899364D-03  0.10811965D-02  0.38557361D-02 -0.74916484D-02  0.36359123D-02
  0.11013706D-02  0.82890986D-03 -0.85051622D-02  0.14516466D-03 -0.36322923D-03
  0.21806457D-03  0.11724384D-03  0.75551681D-04  0.47174922D-03 -0.31077668D-01
 -0.56049853D-01 -0.82645476D-01 -0.58703480D-01 -0.91879632D-02 -0.10731137D-03
  0.21558893D-02  0.29132835D-01 -0.10682776D-02  0.11824058D-02  0.13098520D-01
  0.56018672D-03  0.18487486D-03  0.23474128D-03  0.10552509D-02  0.40923199D-02
 -0.80178168D-02  0.39254969D-02 -0.11308047D-02  0.72987016D-03  0.75582446D-02
  0.18809914D-03 -0.33819721D-03  0.15009807D-03 -0.11866182D-03  0.63852727D-04
 -0.41330824D-03
MO    5     MO 0.0        OCC NO =    2.0000000  ORB. ENERGY =    0.000000
 -0.68231695D-01 -0.12717266D+00 -0.21563912D+00 -0.32634687D+00 -0.40709200D+00
 -0.34934550D+00 -0.13378077D+00 -0.17024687D-02 -0.18266372D-01 -0.67333285D-01
 -0.19687858D+00 -0.23724826D+00  0.28579067D+00  0.16763407D+00  0.98248570D-01
  0.82675492D-02 -0.12684042D+00 -0.12299254D+00 -0.82970039D-01 -0.14894185D+00
 -0.14442349D+00 -0.97427235D-01  0.49825011D+00  0.48313501D+00  0.32592002D+00
 -0.28651750D-01 -0.30580234D-01  0.10461119D+00 -0.47208825D-02 -0.30053323D-02
  0.17499499D-01 -0.15253005D-03 -0.35743788D-04  0.35881701D-03 -0.83501853D-02
  0.22031620D-01 -0.13681435D-01 -0.10826777D-03  0.50273101D-02  0.14833352D-01
 -0.38823799D-02  0.73348455D-02 -0.34524655D-02 -0.51853051D-04  0.13019368D-02
  0.20902670D-02 -0.24603416D-03  0.44248568D-03 -0.19645152D-03 -0.61853346D-05
  0.88183635D-04 -0.72439130D-04  0.75419557D-03 -0.37190426D-03  0.25888632D-02
 -0.16952975D-02  0.13044656D-02 -0.10008648D-03 -0.56728922D-03 -0.18875286D-03
 -0.76665032D-02 -0.92182190D-04  0.27186996D-04 -0.16481388D-04 -0.83503762D-04
 -0.42366493D-04  0.34252035D-04  0.89932733D-04 -0.39194496D-04  0.15192129D-04
  0.16057855D-03  0.11308924D-04  0.14036076D-01  0.25314641D-01  0.37326424D-01
  0.20678625D-02 -0.54617615D-02 -0.14206924D-03 -0.17609454D-02  0.13672052D-01
  0.19847401D-01 -0.96451280D-03 -0.23109679D-02  0.38486399D-02 -0.14959529D-03
 -0.57971190D-03  0.28846729D-03 -0.16138127D-02 -0.85947153D-03  0.24732843D-02
 -0.87506281D-03 -0.65858688D-03  0.68976863D-02  0.15266291D-03 -0.27122634D-03
  0.11856343D-03 -0.93152773D-04 -0.60027451D-04  0.32667312D-04  0.68725624D-02
  0.12394949D-01  0.18276346D-01 -0.10568919D-01 -0.69559467D-02 -0.12221772D-03
 -0.17129009D-02 -0.10382913D-01  0.13752550D-01 -0.93944710D-03  0.36041481D-02
  0.21067197D-02 -0.14688709D-03  0.52177774D-03  0.28918128D-03 -0.22847249D-03
 -0.14438964D-02  0.16723689D-02  0.89844888D-03 -0.57989769D-03 -0.32515244D-02
  0.15752238D-03 -0.24649025D-03  0.88967864D-04  0.94279391D-04 -0.50732378D-04
  0.24008231D-04
END DATA
 TOTAL ENERGY =    -76.465626552921 THE VIRIAL(-V/T)=   2.00634989
