 87
GAUSSIAN              5 MOL ORBITALS    126 PRIMITIVES        3 NUCLEI   B3LYP   B3LYP   B3LYP   B3LYP
  O    1    (CENTRE  1)   0.00000000  0.00000000  0.00815606  CHARGE =  8.0
  H    2    (CENTRE  2)   0.00000000 -1.44255835 -1.09730160  CHARGE =  1.0
  H    3    (CENTRE  3)   0.00000000  1.34807204 -1.00281530  CHARGE =  1.0
CENTRE ASSIGNMENTS    1  1  1  1  1  1  1  1  1  1  1  1  1  1  1  1  1  1  1  1
CENTRE ASSIGNMENTS    1  1  1  1  1  1  1  1  1  1  1  1  1  1  1  1  1  1  1  1
CENTRE ASSIGNMENTS    1  1  1  1  1  1  1  1  1  1  1  1  1  1  1  1  1  1  1  1
CENTRE ASSIGNMENTS    1  1  1  1  1  1  1  1  1  1  1  1  2  2  2  2  2  2  2  2
CENTRE ASSIGNMENTS    2  2  2  2  2  2  2  2  2  2  2  2  2  2  2  2  2  2  2  3
CENTRE ASSIGNMENTS    3  3  3  3  3  3  3  3  3  3  3  3  3  3  3  3  3  3  3  3
CENTRE ASSIGNMENTS    3  3  3  3  3  3
TYPE ASSIGNMENTS      1  1  1  1  1  1  1  1  1  1  1  1  1  1  1  1  2  2  2  3
TYPE ASSIGNMENTS      3  3  4  4  4  2  3  4  2  3  4  2  3  4  5  6  7  8  9 10
TYPE ASSIGNMENTS      5  6  7  8  9 10  5  6  7  8  9 10 11 12 13 17 14 15 18 19
TYPE ASSIGNMENTS     16 20 11 12 13 17 14 15 18 19 16 20  1  1  1  1  1  1  2  3
TYPE ASSIGNMENTS      4  2  3  4  2  3  4  5  6  7  8  9 10  5  6  7  8  9 10  1
TYPE ASSIGNMENTS      1  1  1  1  1  2  3  4  2  3  4  2  3  4  5  6  7  8  9 10
TYPE ASSIGNMENTS      5  6  7  8  9 10
EXPONENTS  0.1533000D+05 0.2299000D+04 0.5224000D+03 0.1473000D+03 0.4755000D+02
EXPONENTS  0.1676000D+02 0.6207000D+01 0.5224000D+03 0.1473000D+03 0.4755000D+02
EXPONENTS  0.1676000D+02 0.6207000D+01 0.6882000D+00 0.1752000D+01 0.2384000D+00
EXPONENTS  0.7376000D-01 0.3446000D+02 0.7749000D+01 0.2280000D+01 0.3446000D+02
EXPONENTS  0.7749000D+01 0.2280000D+01 0.3446000D+02 0.7749000D+01 0.2280000D+01
EXPONENTS  0.7156000D+00 0.7156000D+00 0.7156000D+00 0.2140000D+00 0.2140000D+00
EXPONENTS  0.2140000D+00 0.5974000D-01 0.5974000D-01 0.5974000D-01 0.2314000D+01
EXPONENTS  0.2314000D+01 0.2314000D+01 0.2314000D+01 0.2314000D+01 0.2314000D+01
EXPONENTS  0.6450000D+00 0.6450000D+00 0.6450000D+00 0.6450000D+00 0.6450000D+00
EXPONENTS  0.6450000D+00 0.2140000D+00 0.2140000D+00 0.2140000D+00 0.2140000D+00
EXPONENTS  0.2140000D+00 0.2140000D+00 0.1428000D+01 0.1428000D+01 0.1428000D+01
EXPONENTS  0.1428000D+01 0.1428000D+01 0.1428000D+01 0.1428000D+01 0.1428000D+01
EXPONENTS  0.1428000D+01 0.1428000D+01 0.5000000D+00 0.5000000D+00 0.5000000D+00
EXPONENTS  0.5000000D+00 0.5000000D+00 0.5000000D+00 0.5000000D+00 0.5000000D+00
EXPONENTS  0.5000000D+00 0.5000000D+00 0.3387000D+02 0.5095000D+01 0.1159000D+01
EXPONENTS  0.3258000D+00 0.1027000D+00 0.2526000D-01 0.1407000D+01 0.1407000D+01
EXPONENTS  0.1407000D+01 0.3880000D+00 0.3880000D+00 0.3880000D+00 0.1020000D+00
EXPONENTS  0.1020000D+00 0.1020000D+00 0.1057000D+01 0.1057000D+01 0.1057000D+01
EXPONENTS  0.1057000D+01 0.1057000D+01 0.1057000D+01 0.2470000D+00 0.2470000D+00
EXPONENTS  0.2470000D+00 0.2470000D+00 0.2470000D+00 0.2470000D+00 0.3387000D+02
EXPONENTS  0.5095000D+01 0.1159000D+01 0.3258000D+00 0.1027000D+00 0.2526000D-01
EXPONENTS  0.1407000D+01 0.1407000D+01 0.1407000D+01 0.3880000D+00 0.3880000D+00
EXPONENTS  0.3880000D+00 0.1020000D+00 0.1020000D+00 0.1020000D+00 0.1057000D+01
EXPONENTS  0.1057000D+01 0.1057000D+01 0.1057000D+01 0.1057000D+01 0.1057000D+01
EXPONENTS  0.2470000D+00 0.2470000D+00 0.2470000D+00 0.2470000D+00 0.2470000D+00
EXPONENTS  0.2470000D+00
MO    1     MO 0.0        OCC NO =    2.0000000  ORB. ENERGY =    0.000000
 -0.20569897D+00 -0.38338905D+00 -0.65009001D+00 -0.98384211D+00 -0.12272655D+01
 -0.10531764D+01 -0.40331060D+00 -0.91116275D-03 -0.97761784D-02 -0.36036834D-01
 -0.10536959D+00 -0.12697548D+00  0.15295542D+00  0.70677411D-01  0.56225248D-02
 -0.26984145D-02 -0.99832635D-01 -0.96804074D-01 -0.65303456D-01  0.65766906D+00
  0.63771776D+00  0.43020064D+00 -0.92542671D+00 -0.89735261D+00 -0.60534877D+00
 -0.22502964D-01  0.12607132D+00 -0.19763771D+00 -0.36426704D-02  0.77921968D-02
 -0.18822535D-01 -0.11374543D-03  0.36489751D-04 -0.37726030D-03 -0.37779014D-01
  0.13320081D-01  0.24458934D-01 -0.37625092D-03  0.42969687D-02 -0.64494280D-01
 -0.52040660D-02 -0.22144931D-02  0.74185591D-02  0.42562432D-04  0.10220439D-02
 -0.23919046D-02  0.86291854D-03 -0.11837261D-02  0.32080755D-03  0.14642674D-04
  0.60468352D-04  0.16771716D-02  0.60491422D-03  0.28268147D-02 -0.13822709D-03
 -0.12852342D-02 -0.44176118D-02  0.13370650D-01 -0.52950851D-03 -0.40628324D-02
 -0.12955968D-01  0.18282163D-04  0.10485378D-04  0.18966266D-03 -0.68938910D-03
 -0.73235174D-05  0.21228714D-03 -0.29519155D-03 -0.24132616D-04 -0.78127513D-03
  0.23633589D-02 -0.61391663D-04  0.10686515D-01  0.19273571D-01  0.28418869D-01
  0.94413290D-02 -0.62193388D-03  0.46808818D-04 -0.13782324D-02  0.16590849D-01
 -0.25544837D-02 -0.74599496D-03  0.38703291D-02 -0.35723279D-02 -0.11511453D-03
 -0.16300172D-03 -0.80607160D-03 -0.43289995D-03  0.32689750D-02 -0.28360751D-02
 -0.67902781D-03 -0.49823910D-03 -0.10307757D-02  0.36096038D-04  0.14624743D-04
 -0.50720781D-04 -0.71642105D-04 -0.43291445D-04 -0.72291959D-03  0.47378199D-01
  0.85448533D-01  0.12599381D+00  0.80620083D-01  0.68718879D-02 -0.25319318D-04
 -0.16325770D-02 -0.46984856D-01  0.28321006D-01 -0.88032734D-03 -0.13180064D-01
  0.65682689D-02 -0.12884650D-03  0.35342252D-03 -0.73710290D-03 -0.87316636D-02
  0.92034112D-02 -0.47174760D-03  0.80138692D-03 -0.58083387D-03 -0.23907363D-01
  0.25541855D-03 -0.19781215D-03 -0.57606392D-04  0.86290500D-04 -0.55337132D-04
  0.90780058D-03
MO    2     MO 0.0        OCC NO =    2.0000000  ORB. ENERGY =    0.000000
 -0.23667377D-01 -0.44112099D-01 -0.74798262D-01 -0.11319922D+00 -0.14120710D+00
 -0.12117670D+00 -0.46404238D-01  0.43814192D-03  0.47009753D-02  0.17328680D-01
  0.50668044D-01  0.61057456D-01 -0.73550177D-01 -0.47103016D-01 -0.73567306D-02
  0.13857539D-02  0.64677119D-01  0.62715049D-01  0.42307201D-01  0.12860604D+01
  0.12470460D+01  0.84124987D+00  0.57027628D+00  0.55297616D+00  0.37303445D+00
  0.14578669D-01  0.26113787D+00  0.12733435D+00  0.23599239D-02  0.22453176D-01
  0.15437525D-01  0.73690602D-04  0.18283371D-03  0.30368437D-03  0.21206534D-01
 -0.34444634D-02 -0.17762070D-01  0.24375622D-03 -0.27838147D-02 -0.11818698D+00
  0.40049334D-02  0.69242681D-03 -0.46973602D-02 -0.27574305D-04 -0.66213672D-03
 -0.13704453D-01 -0.12079566D-03  0.37669163D-03 -0.25589597D-03 -0.94863362D-05
 -0.39174753D-04  0.13468998D-02 -0.39189699D-03  0.62388510D-02 -0.14496021D-03
  0.83264597D-03 -0.11946789D-01 -0.88395880D-02  0.34304498D-03 -0.67697644D-02
  0.92744687D-02 -0.11844199D-04 -0.67930094D-05  0.12176030D-04  0.20934589D-03
  0.47445808D-05 -0.57646099D-03 -0.22017610D-03  0.15634447D-04  0.53993290D-03
 -0.40786159D-03  0.39772925D-04 -0.48619694D-01 -0.87687620D-01 -0.12929534D+00
 -0.85656725D-01 -0.10197366D-01  0.70737590D-04  0.89289537D-03 -0.34466899D-01
 -0.29120704D-01  0.48329692D-03 -0.12168870D-01 -0.10547289D-01  0.74577576D-04
  0.91213776D-04  0.18838097D-03  0.85558644D-02 -0.66556147D-02 -0.19002498D-02
  0.43991188D-03  0.32278693D-03 -0.24041927D-01  0.10119701D-03  0.18563988D-04
 -0.11976099D-03  0.46413730D-04  0.28046599D-04 -0.39951997D-03  0.18251602D-01
  0.32917515D-01  0.48536857D-01  0.41463975D-01  0.54380364D-02 -0.86229170D-04
  0.10576739D-02 -0.57624256D-02  0.24513810D-01  0.57032488D-03 -0.28661643D-02
  0.10586386D-01  0.83473912D-04  0.11798553D-03  0.62002141D-03 -0.49002058D-02
  0.40911342D-03  0.44910924D-02 -0.51918290D-03  0.37629640D-03 -0.16414518D-01
  0.37579201D-04 -0.22333955D-03  0.18576035D-03 -0.55903772D-04  0.35850464D-04
 -0.54532133D-03
MO    3     MO 0.0        OCC NO =    2.0000000  ORB. ENERGY =    0.000000
 -0.26722076D+00 -0.49805556D+00 -0.84452320D+00 -0.12780961D+01 -0.15943241D+01
 -0.13681673D+01 -0.52393538D+00 -0.11476380D-02 -0.12313403D-01 -0.45389522D-01
 -0.13271630D+00 -0.15992959D+00  0.19265214D+00  0.86763890D-01  0.92790216D-01
  0.98844063D-02 -0.27426172D+00 -0.26594161D+00 -0.17940264D+00 -0.21718991D+00
 -0.21060115D+00 -0.14207029D+00  0.11676734D+01  0.11322504D+01  0.76380944D+00
 -0.61820483D-01 -0.43905284D-01  0.25008080D+00 -0.10007199D-01 -0.30999598D-02
  0.32578853D-01 -0.31248317D-03 -0.25659484D-04  0.63298128D-03  0.19292329D-01
  0.13100630D-01 -0.32392960D-01 -0.10336422D-02  0.11804697D-01  0.23408501D-01
  0.70423214D-03  0.77076669D-02 -0.84118990D-02  0.11692816D-03  0.28077743D-02
  0.25395364D-02 -0.69940451D-03  0.10845388D-02 -0.38513433D-03  0.40226574D-04
  0.16611957D-03 -0.54735731D-03  0.16618295D-02 -0.91682994D-03  0.21351453D-02
 -0.35308146D-02  0.22472754D-02 -0.10754783D-01 -0.14546737D-02  0.50321440D-03
  0.43493474D-02  0.50225034D-04  0.28805588D-04 -0.13036311D-03  0.29264202D-03
 -0.20119277D-04  0.44635331D-04  0.20762072D-03 -0.66297486D-04  0.34645401D-03
 -0.10855468D-02 -0.16865610D-03 -0.30222560D-02 -0.54507632D-02 -0.80371472D-02
 -0.22470215D-01 -0.72959645D-02 -0.15480654D-03 -0.37863007D-02 -0.36073072D-02
  0.15033625D-01 -0.20494086D-02 -0.71527791D-02  0.39727238D-02 -0.31624436D-03
 -0.46592939D-03  0.81973964D-03  0.40954460D-04 -0.39173104D-02  0.38763559D-02
 -0.18654354D-02 -0.13687700D-02  0.34030933D-02  0.14509907D-03 -0.28408159D-03
  0.13898252D-03 -0.19681627D-03 -0.11893091D-03  0.37321058D-03 -0.13180638D-01
 -0.23771823D-01 -0.35051539D-01 -0.43778993D-01 -0.85844508D-02 -0.10049460D-03
 -0.44850401D-02  0.11445832D-01  0.85370825D-02 -0.24184485D-02  0.89865636D-02
  0.21633256D-02 -0.35396905D-03  0.15414460D-03  0.96874365D-03  0.17170834D-02
 -0.51824731D-02  0.34653897D-02  0.22015822D-02 -0.15956755D-02  0.14209600D-02
 -0.27157290D-04 -0.10911914D-03  0.13627643D-03  0.23705856D-03 -0.15202300D-03
 -0.68186303D-03
MO    4     MO 0.0        OCC NO =    2.0000000  ORB. ENERGY =    0.000000
  0.37342260D+00  0.69599832D+00  0.11801630D+01  0.17860511D+01  0.22279580D+01
  0.19119194D+01  0.73216357D+00 -0.78559557D-03 -0.84289249D-02 -0.31070604D-01
 -0.90848625D-01 -0.10947701D+00  0.13187666D+00  0.12505753D+00  0.49453551D-01
  0.44547377D-02  0.10574177D+00  0.10253395D+00  0.69168794D-01  0.27336651D+00
  0.26507356D+00  0.17881706D+00  0.30135480D+00  0.29221278D+00  0.19712502D+00
  0.23834924D-01  0.55118253D-01  0.65034735D-01  0.38582815D-02  0.45653228D-02
  0.10475210D-01  0.12047807D-03  0.46021218D-04  0.19493748D-03 -0.54442545D-02
  0.14462492D-01 -0.90182375D-02  0.39852137D-03 -0.45513080D-02 -0.27991944D-01
 -0.11028866D-02  0.30119845D-02 -0.19090979D-02 -0.45081720D-04 -0.10825391D-02
 -0.21055529D-02 -0.43388977D-04  0.12906806D-03 -0.85679082D-04 -0.15509379D-04
 -0.64047498D-04  0.34363307D-03 -0.64071933D-03  0.13066750D-02  0.18423796D-02
  0.13613077D-02 -0.28755365D-02  0.52086437D-03  0.56085033D-03 -0.10444884D-02
 -0.60480033D-02 -0.19364292D-04 -0.11106011D-04  0.27102685D-05 -0.27014672D-03
  0.77569993D-05  0.82579297D-04 -0.38450024D-03  0.25561035D-04 -0.90710103D-04
  0.11949404D-02  0.65025460D-04 -0.32488766D-02 -0.58594827D-02 -0.86398038D-02
 -0.17941571D-01 -0.49691293D-02 -0.41297552D-04  0.14598105D-02 -0.42182995D-03
  0.29109684D-02  0.79015070D-03 -0.40885633D-02 -0.84508819D-03  0.12192820D-03
 -0.27650314D-03  0.11193599D-03  0.19028962D-02 -0.25072876D-02  0.60439144D-03
  0.71921974D-03  0.52773007D-03 -0.44610729D-02  0.10007692D-03 -0.12157023D-03
  0.21493317D-04  0.75882630D-04  0.45853883D-04 -0.14435513D-03  0.12359990D-01
  0.22291751D-01  0.32869174D-01  0.82666267D-02 -0.21623668D-02 -0.90950783D-04
  0.17292099D-02 -0.91307855D-02  0.15309405D-01  0.93243426D-03  0.16504624D-02
  0.30363992D-02  0.13647298D-03  0.39271548D-03  0.15824518D-03 -0.71359279D-03
 -0.12081572D-02  0.19217500D-02 -0.84882133D-03  0.61521365D-03 -0.38067527D-02
  0.12989214D-03 -0.19378833D-03  0.63896192D-04 -0.91398069D-04  0.58612559D-04
  0.76926525D-04
MO    5     MO 0.0        OCC NO =    2.0000000  ORB. ENERGY =    0.000000
 -0.74851012D-01 -0.13950998D+00 -0.23655878D+00 -0.35800655D+00 -0.44658495D+00
 -0.38323633D+00 -0.14675916D+00 -0.19935981D-03 -0.21390000D-02 -0.78847567D-02
 -0.23054566D-01 -0.27781873D-01  0.33466210D-01  0.11743216D-01  0.12073800D-01
  0.10683240D-02  0.17605577D+01  0.17071487D+01  0.11516324D+01 -0.60205345D-01
 -0.58378933D-01 -0.39382083D-01  0.90375176D-01  0.87633521D-01  0.59117055D-01
  0.39684184D+00 -0.12594562D-01  0.19166875D-01  0.64238826D-01 -0.11401142D-02
  0.28115564D-02  0.20059112D-02 -0.11408924D-04  0.54349359D-04  0.41104960D-03
  0.20540472D-02 -0.24650968D-02  0.66352195D-02 -0.75777437D-01  0.60124886D-02
 -0.26627817D-03  0.86879434D-03 -0.60251617D-03 -0.75059239D-03 -0.18023837D-01
  0.88989808D-03 -0.52978503D-04  0.80236950D-04 -0.27258447D-04 -0.25822489D-03
 -0.10663649D-02 -0.60283548D-04 -0.10667718D-01 -0.29020579D-03  0.21944648D-03
  0.22665222D-01  0.71117693D-03 -0.62375477D-03  0.93379310D-02  0.15944044D-03
 -0.34584679D-04 -0.32240762D-03 -0.18491060D-03 -0.10163363D-04  0.15030962D-04
  0.12915090D-03  0.35208561D-04  0.46786741D-04  0.42558089D-03 -0.47184710D-05
 -0.91879627D-04  0.10826476D-02  0.21164303D-02  0.38170691D-02  0.56282662D-02
  0.12592809D-02 -0.49876941D-03 -0.21579917D-04  0.24305254D-01  0.16703722D-02
  0.30920653D-02  0.13155690D-01 -0.20219103D-03  0.85453637D-03  0.20300552D-02
 -0.68569750D-04  0.68348061D-04 -0.44677297D-03 -0.29778567D-04  0.47655153D-03
  0.11974718D-01  0.87864922D-02  0.16228480D-02  0.14922114D-04 -0.36805550D-04
  0.21883436D-04  0.12634151D-02  0.76344860D-03  0.40493178D-04 -0.77957239D-03
 -0.14059909D-02 -0.20731328D-02 -0.42681275D-02 -0.10175251D-02 -0.84604817D-05
  0.28790645D-01 -0.12113542D-03  0.11157995D-02  0.15524653D-01  0.65872441D-03
  0.13817998D-03  0.22722199D-02  0.16132201D-04  0.76832502D-04 -0.47638226D-05
 -0.22791686D-03  0.23268068D-03 -0.14132532D-01  0.10243058D-01 -0.30265614D-03
  0.10708894D-05 -0.83716834D-05  0.73007940D-05 -0.15217409D-02  0.97587540D-03
 -0.39331478D-04
END DATA
 TOTAL ENERGY =    -76.460710234649 THE VIRIAL(-V/T)=   2.00390059
