 87
GAUSSIAN              5 MOL ORBITALS    126 PRIMITIVES        3 NUCLEI   B3LYP   B3LYP   B3LYP   B3LYP
  O    1    (CENTRE  1)   0.00000000  0.00000000  0.00815606  CHARGE =  8.0
  H    2    (CENTRE  2)   0.00000000 -1.44255835 -1.09730160  CHARGE =  1.0
  H    3    (CENTRE  3)   0.00000000  1.34807204 -1.19178791  CHARGE =  1.0
CENTRE ASSIGNMENTS    1  1  1  1  1  1  1  1  1  1  1  1  1  1  1  1  1  1  1  1
CENTRE ASSIGNMENTS    1  1  1  1  1  1  1  1  1  1  1  1  1  1  1  1  1  1  1  1
CENTRE ASSIGNMENTS    1  1  1  1  1  1  1  1  1  1  1  1  1  1  1  1  1  1  1  1
CENTRE ASSIGNMENTS    1  1  1  1  1  1  1  1  1  1  1  1  2  2  2  2  2  2  2  2
CENTRE ASSIGNMENTS    2  2  2  2  2  2  2  2  2  2  2  2  2  2  2  2  2  2  2  3
CENTRE ASSIGNMENTS    3  3  3  3  3  3  3  3  3  3  3  3  3  3  3  3  3  3  3  3
CENTRE ASSIGNMENTS    3  3  3  3  3  3
TYPE ASSIGNMENTS      1  1  1  1  1  1  1  1  1  1  1  1  1  1  1  1  2  2  2  3
TYPE ASSIGNMENTS      3  3  4  4  4  2  3  4  2  3  4  2  3  4  5  6  7  8  9 10
TYPE ASSIGNMENTS      5  6  7  8  9 10  5  6  7  8  9 10 11 12 13 17 14 15 18 19
TYPE ASSIGNMENTS     16 20 11 12 13 17 14 15 18 19 16 20  1  1  1  1  1  1  2  3
TYPE ASSIGNMENTS      4  2  3  4  2  3  4  5  6  7  8  9 10  5  6  7  8  9 10  1
TYPE ASSIGNMENTS      1  1  1  1  1  2  3  4  2  3  4  2  3  4  5  6  7  8  9 10
TYPE ASSIGNMENTS      5  6  7  8  9 10
EXPONENTS  0.1533000D+05 0.2299000D+04 0.5224000D+03 0.1473000D+03 0.4755000D+02
EXPONENTS  0.1676000D+02 0.6207000D+01 0.5224000D+03 0.1473000D+03 0.4755000D+02
EXPONENTS  0.1676000D+02 0.6207000D+01 0.6882000D+00 0.1752000D+01 0.2384000D+00
EXPONENTS  0.7376000D-01 0.3446000D+02 0.7749000D+01 0.2280000D+01 0.3446000D+02
EXPONENTS  0.7749000D+01 0.2280000D+01 0.3446000D+02 0.7749000D+01 0.2280000D+01
EXPONENTS  0.7156000D+00 0.7156000D+00 0.7156000D+00 0.2140000D+00 0.2140000D+00
EXPONENTS  0.2140000D+00 0.5974000D-01 0.5974000D-01 0.5974000D-01 0.2314000D+01
EXPONENTS  0.2314000D+01 0.2314000D+01 0.2314000D+01 0.2314000D+01 0.2314000D+01
EXPONENTS  0.6450000D+00 0.6450000D+00 0.6450000D+00 0.6450000D+00 0.6450000D+00
EXPONENTS  0.6450000D+00 0.2140000D+00 0.2140000D+00 0.2140000D+00 0.2140000D+00
EXPONENTS  0.2140000D+00 0.2140000D+00 0.1428000D+01 0.1428000D+01 0.1428000D+01
EXPONENTS  0.1428000D+01 0.1428000D+01 0.1428000D+01 0.1428000D+01 0.1428000D+01
EXPONENTS  0.1428000D+01 0.1428000D+01 0.5000000D+00 0.5000000D+00 0.5000000D+00
EXPONENTS  0.5000000D+00 0.5000000D+00 0.5000000D+00 0.5000000D+00 0.5000000D+00
EXPONENTS  0.5000000D+00 0.5000000D+00 0.3387000D+02 0.5095000D+01 0.1159000D+01
EXPONENTS  0.3258000D+00 0.1027000D+00 0.2526000D-01 0.1407000D+01 0.1407000D+01
EXPONENTS  0.1407000D+01 0.3880000D+00 0.3880000D+00 0.3880000D+00 0.1020000D+00
EXPONENTS  0.1020000D+00 0.1020000D+00 0.1057000D+01 0.1057000D+01 0.1057000D+01
EXPONENTS  0.1057000D+01 0.1057000D+01 0.1057000D+01 0.2470000D+00 0.2470000D+00
EXPONENTS  0.2470000D+00 0.2470000D+00 0.2470000D+00 0.2470000D+00 0.3387000D+02
EXPONENTS  0.5095000D+01 0.1159000D+01 0.3258000D+00 0.1027000D+00 0.2526000D-01
EXPONENTS  0.1407000D+01 0.1407000D+01 0.1407000D+01 0.3880000D+00 0.3880000D+00
EXPONENTS  0.3880000D+00 0.1020000D+00 0.1020000D+00 0.1020000D+00 0.1057000D+01
EXPONENTS  0.1057000D+01 0.1057000D+01 0.1057000D+01 0.1057000D+01 0.1057000D+01
EXPONENTS  0.2470000D+00 0.2470000D+00 0.2470000D+00 0.2470000D+00 0.2470000D+00
EXPONENTS  0.2470000D+00
MO    1     MO 0.0        OCC NO =    2.0000000  ORB. ENERGY =    0.000000
 -0.24866755D-01 -0.46347542D-01 -0.78588771D-01 -0.11893575D+00 -0.14836297D+00
 -0.12731750D+00 -0.48755839D-01 -0.38491053D-03 -0.41298374D-02 -0.15223358D-01
 -0.44512207D-01 -0.53639374D-01  0.64614310D-01  0.36792985D-01 -0.43293457D-03
 -0.19596275D-02  0.82756639D+00  0.80246102D+00  0.54133546D+00  0.11134078D+01
  0.10796310D+01  0.72831272D+00 -0.58758794D+00 -0.56976265D+00 -0.38435851D+00
  0.18685994D+00  0.22997006D+00 -0.12705145D+00  0.30690800D-01  0.22177144D-01
 -0.13487458D-01  0.97697878D-03  0.22554171D-03 -0.24626689D-03 -0.20502961D-01
  0.33535744D-03  0.20167604D-01 -0.10198305D-02 -0.34880489D-01 -0.10703283D+00
 -0.32787544D-02 -0.19117588D-02  0.51905132D-02 -0.34891421D-03 -0.89590669D-02
 -0.13319269D-01  0.32126293D-03 -0.48214659D-03  0.16088366D-03 -0.32060513D-04
 -0.58290464D-03  0.75543566D-03 -0.49898411D-02  0.46259503D-02 -0.36872492D-03
  0.96883053D-02 -0.10843794D-01  0.84196923D-02  0.52812179D-02 -0.30340570D-02
 -0.73135176D-02 -0.36316651D-03 -0.17636964D-03  0.10729550D-03 -0.34548216D-03
  0.25332358D-03 -0.64299269D-03  0.11243819D-03  0.27578536D-03  0.32110620D-03
  0.92400829D-03  0.47427674D-04 -0.13908988D-01 -0.25085433D-01 -0.36988457D-01
 -0.29630368D-01 -0.41672392D-02  0.11059212D-03  0.11503973D-01 -0.10454353D-02
 -0.17065144D-01  0.62233809D-02 -0.10765764D-02 -0.80060420D-02  0.95389347D-03
  0.17287867D-03 -0.53547300D-03  0.33569568D-02  0.49658490D-03 -0.38535417D-02
  0.57454693D-02  0.41631688D-02 -0.11653798D-01  0.72876972D-04  0.10032612D-03
 -0.17320309D-03  0.59036914D-03  0.35352630D-03 -0.66311144D-03  0.43850423D-01
  0.79086043D-01  0.11661232D+00  0.77610611D-01  0.89353132D-02 -0.76705437D-04
  0.11686038D-01 -0.28703137D-01  0.29083525D-01  0.63191677D-02 -0.10040996D-01
  0.10275530D-01  0.96424632D-03  0.24690205D-03 -0.22713784D-03 -0.77407643D-02
  0.41065490D-02  0.36342153D-02 -0.54973584D-02  0.46418637D-02 -0.21965614D-01
 -0.75022775D-04 -0.80271528D-04  0.15529430D-03 -0.57279655D-03  0.40693280D-03
 -0.19061893D-03
MO    2     MO 0.0        OCC NO =    2.0000000  ORB. ENERGY =    0.000000
 -0.14725576D+00 -0.27446052D+00 -0.46538639D+00 -0.70431281D+00 -0.87857471D+00
 -0.75394781D+00 -0.28872196D+00  0.12881305D-03  0.13820795D-02  0.50946052D-02
  0.14896327D-01  0.17950798D-01 -0.21623639D-01 -0.30446383D-01  0.15273168D-01
  0.33681263D-02 -0.10350243D+01 -0.10036254D+01 -0.67703975D+00  0.90992570D+00
  0.88232185D+00  0.59520910D+00  0.64888809D+00  0.62920317D+00  0.42445674D+00
 -0.23370278D+00  0.18873745D+00  0.14093701D+00 -0.38384500D-01  0.18520655D-01
  0.16440987D-01 -0.12218920D-02  0.19740571D-03  0.31217593D-03  0.21921939D-01
 -0.49001997D-02 -0.17021739D-01  0.12754859D-02  0.43624479D-01 -0.85158955D-01
  0.31164248D-02  0.21185758D-02 -0.52350006D-02  0.43638151D-03  0.11204964D-01
 -0.11570476D-01 -0.35522535D-03  0.61622845D-03 -0.26100311D-03  0.40097580D-04
  0.72902967D-03  0.42457197D-03  0.62407157D-02  0.40832703D-02  0.88653416D-03
 -0.12117011D-01 -0.91216102D-02 -0.90575237D-02 -0.66051362D-02 -0.31282007D-02
  0.63979212D-02  0.45420664D-03  0.22058274D-03  0.58233761D-05  0.35244608D-03
 -0.31682781D-03 -0.53734101D-03 -0.26371845D-04 -0.34492041D-03  0.51987088D-03
 -0.10309664D-02 -0.59317046D-04 -0.37199594D-01 -0.67091000D-01 -0.98925641D-01
 -0.68227447D-01 -0.87319148D-02  0.34722859D-04 -0.14387838D-01 -0.26044367D-01
 -0.19120381D-01 -0.77834845D-02 -0.10087774D-01 -0.69714425D-02 -0.11930196D-02
  0.13545227D-03  0.32540769D-03  0.61285937D-02 -0.52039243D-02 -0.92466944D-03
 -0.71857681D-02 -0.52068098D-02 -0.16403505D-01  0.99419572D-04 -0.19027195D-05
 -0.97516852D-04 -0.73836540D-03 -0.44214978D-03 -0.15758383D-03  0.77485148D-02
  0.13974766D-01  0.20605784D-01  0.15157189D-01  0.15855301D-02 -0.11022055D-03
 -0.14615543D-01  0.28582618D-02  0.14864412D-01 -0.79032837D-02  0.13894114D-02
  0.66746754D-02 -0.12059677D-02  0.23252867D-03  0.58017904D-03 -0.24731148D-02
 -0.19020583D-02  0.43751731D-02  0.68754597D-02 -0.58055059D-02 -0.85728200D-02
 -0.35875544D-04 -0.16172424D-03  0.19759979D-03  0.71638763D-03 -0.50894445D-03
 -0.53959688D-03
MO    3     MO 0.0        OCC NO =    2.0000000  ORB. ENERGY =    0.000000
  0.89609732D-01  0.16701781D+00  0.28320216D+00  0.42859636D+00  0.53464017D+00
  0.45880081D+00  0.17569634D+00  0.32344428D-03  0.34703449D-02  0.12792345D-01
  0.37404065D-01  0.45073718D-01 -0.54296069D-01 -0.22576021D-01  0.23185219D-01
  0.55302384D-02  0.10914314D+01  0.10583213D+01  0.71393731D+00  0.14179709D+00
  0.13749548D+00  0.92753639D-01  0.11303330D+01  0.10960428D+01  0.73938398D+00
  0.24643920D+00  0.30191281D-01  0.24516015D+00  0.40476393D-01  0.32734252D-02
  0.27881736D-01  0.12884831D-02  0.43512795D-04  0.51883773D-03  0.35992991D-01
 -0.30829275D-02 -0.32910064D-01 -0.13449978D-02 -0.46001942D-01 -0.11431774D-01
  0.54276553D-02  0.39395616D-02 -0.93672168D-02 -0.46016359D-03 -0.11815616D-01
 -0.24622583D-02 -0.60357125D-03  0.99871619D-03 -0.39514494D-03 -0.42282832D-04
 -0.76876059D-03 -0.11025851D-03 -0.65808245D-02  0.83125992D-03  0.15788716D-02
  0.12777368D-01 -0.16517070D-02 -0.14894620D-01  0.69651053D-02 -0.84207280D-03
  0.10158005D-01 -0.47896016D-03 -0.23260414D-03 -0.60090546D-04  0.56064257D-03
  0.33409441D-03 -0.96154808D-04 -0.24728085D-03  0.36371800D-03  0.27642645D-03
 -0.14346469D-02  0.62549728D-04 -0.28024624D-01 -0.50543564D-01 -0.74526455D-01
 -0.50276070D-01 -0.65675377D-02 -0.52310081D-04  0.15171952D-01 -0.25888802D-01
 -0.66046580D-02  0.82076717D-02 -0.10208665D-01 -0.14746483D-02  0.12580372D-02
 -0.37213335D-04  0.72434361D-03  0.43254356D-02 -0.62427273D-02  0.19172917D-02
  0.75773807D-02  0.54905724D-02 -0.96733237D-02  0.63509168D-04 -0.92104451D-04
  0.28595283D-04  0.77860511D-03  0.46624622D-03  0.29403248D-03 -0.23057420D-01
 -0.41585007D-01 -0.61317068D-01 -0.41245379D-01 -0.53509161D-02 -0.68646805D-04
  0.15412067D-01  0.23411446D-01 -0.46539084D-02  0.83339997D-02  0.92564342D-02
 -0.59173460D-03  0.12716910D-02  0.12147788D-03  0.75862579D-03  0.34439118D-02
 -0.53659145D-02  0.19220027D-02 -0.72501610D-02  0.61218965D-02  0.81890764D-02
  0.31521340D-04 -0.12740297D-03  0.95881635D-04 -0.75542958D-03  0.53668109D-03
 -0.39372763D-03
MO    4     MO 0.0        OCC NO =    2.0000000  ORB. ENERGY =    0.000000
  0.46966933D+00  0.87538641D+00  0.14843407D+01  0.22463918D+01  0.28021967D+01
  0.24047016D+01  0.92087297D+00  0.70072389D-03  0.75183074D-02  0.27713897D-01
  0.81033809D-01  0.97649680D-01 -0.11762939D+00 -0.16959176D-01 -0.38385747D-01
 -0.32056078D-02 -0.43672314D+00 -0.42347454D+00 -0.28567343D+00  0.31774486D+00
  0.30810563D+00  0.20784624D+00 -0.24101509D+00 -0.23370356D+00 -0.15765504D+00
 -0.98609683D-01  0.65961980D-01 -0.49922900D-01 -0.16196142D-01  0.63527998D-02
 -0.76525365D-02 -0.51557102D-03  0.64762716D-04 -0.13829064D-03 -0.24191010D-03
 -0.68415736D-02  0.70834837D-02  0.53818470D-03  0.18407124D-01 -0.30271547D-01
  0.13747563D-02 -0.28764253D-02  0.15016690D-02  0.18412892D-03  0.47278767D-02
 -0.38497056D-02  0.14435342D-03 -0.20089877D-03  0.56545357D-04  0.16918967D-04
  0.30761030D-03  0.19857954D-03  0.26332378D-02  0.14102597D-02 -0.60633073D-03
 -0.51127102D-02 -0.32508644D-02  0.17733122D-02 -0.27870031D-02 -0.97991461D-03
  0.45679967D-04  0.19165015D-03  0.93073748D-04  0.40616997D-04 -0.97318755D-04
 -0.13368386D-03 -0.20880142D-03 -0.28577198D-03 -0.14553738D-03  0.86950425D-04
  0.57772825D-03 -0.25028521D-04 -0.11399140D-01 -0.20558819D-01 -0.30313967D-01
 -0.12536554D-01  0.44205970D-03  0.76877306D-04 -0.60708739D-02 -0.87637412D-02
 -0.12902976D-01 -0.32842011D-02 -0.88373609D-03 -0.39581396D-02 -0.50338844D-03
  0.20690233D-03 -0.20825006D-03  0.27225602D-02 -0.98947351D-03 -0.17330867D-02
 -0.30319977D-02 -0.21969865D-02 -0.88492878D-02 -0.10512744D-04  0.83458740D-04
 -0.72945996D-04 -0.31154947D-03 -0.18656282D-03 -0.18506290D-03  0.51121933D-02
  0.92200512D-02  0.13594960D-01  0.18024735D-01  0.41428426D-02  0.20562027D-04
 -0.61669531D-02 -0.11537329D-03 -0.49033066D-03 -0.33347497D-02 -0.22986770D-02
  0.11574988D-02 -0.50885185D-03 -0.75033519D-04 -0.11584758D-03 -0.35844550D-03
  0.37075048D-03 -0.12304983D-04  0.29010647D-02 -0.24496033D-02 -0.46458729D-03
 -0.51685493D-04  0.25722416D-04  0.25963077D-04  0.30227606D-03 -0.21474648D-03
 -0.69091307D-04
MO    5     MO 0.0        OCC NO =    2.0000000  ORB. ENERGY =    0.000000
  0.91605798D-01  0.17073815D+00  0.28951052D+00  0.43814338D+00  0.54654934D+00
  0.46902064D+00  0.17960999D+00 -0.15124633D-02 -0.16227739D-01 -0.59818501D-01
 -0.17490579D+00 -0.21076998D+00  0.25389478D+00  0.16708862D+00  0.96764178D-01
  0.86967738D-02 -0.26768831D+00 -0.25956761D+00 -0.17510278D+00 -0.16366224D-01
 -0.15869732D-01 -0.10705627D-01  0.67636439D+00  0.65584594D+00  0.44242980D+00
 -0.60442547D-01 -0.33163899D-02  0.14330561D+00 -0.99273826D-02 -0.67107498D-04
  0.20899139D-01 -0.31601790D-03  0.57488243D-05  0.37266720D-03 -0.10003121D-02
  0.18575432D-01 -0.17575120D-01  0.32987890D-03  0.11282598D-01  0.11509653D-02
 -0.22990798D-02  0.66535518D-02 -0.43544720D-02  0.11286134D-03  0.28979397D-02
 -0.19794166D-03 -0.32973363D-03  0.52653639D-03 -0.19680276D-03  0.10370436D-04
  0.18854893D-03 -0.79693452D-04  0.16140362D-02 -0.39834665D-03  0.28589220D-02
 -0.31338223D-02  0.31428889D-03 -0.25712421D-02 -0.17082863D-02  0.88075107D-03
 -0.60055240D-02  0.11747146D-03  0.57049310D-04 -0.20780865D-05  0.13839197D-04
 -0.81941172D-04  0.38417368D-04 -0.92425684D-04 -0.89206759D-04 -0.32183109D-04
  0.50908094D-04 -0.15341166D-04  0.51671491D-02  0.93191661D-02  0.13741105D-01
 -0.12334909D-01 -0.66196316D-02 -0.13106155D-03 -0.37211263D-02  0.62119378D-02
  0.15293966D-01 -0.20130425D-02 -0.45050815D-02  0.26494045D-02 -0.30855063D-03
 -0.47855152D-03  0.37945125D-03 -0.12412719D-03 -0.21825297D-02  0.23066569D-02
 -0.18584551D-02 -0.13466371D-02  0.23932804D-02  0.11698651D-03 -0.19417422D-03
  0.77187707D-04 -0.19096343D-03 -0.11435319D-03  0.60039520D-04  0.32538964D-02
  0.58685361D-02  0.86531530D-02 -0.16244437D-01 -0.70826045D-02 -0.12440249D-03
 -0.37800177D-02 -0.41456734D-02  0.14263744D-01 -0.20440261D-02  0.50767351D-02
  0.16582263D-02 -0.31189941D-03  0.48193614D-03  0.33662397D-03  0.25803298D-03
 -0.24331448D-02  0.21751118D-02  0.17782000D-02 -0.15014779D-02 -0.61345984D-03
  0.11962182D-03 -0.18426910D-03  0.64647281D-04  0.18527932D-03 -0.13162829D-03
  0.44571547D-05
END DATA
 TOTAL ENERGY =    -76.465682720420 THE VIRIAL(-V/T)=   2.00567945
