 88
GAUSSIAN              5 MOL ORBITALS    126 PRIMITIVES        3 NUCLEI   B3LYP   B3LYP   B3LYP   B3LYP
  O    1    (CENTRE  1)   0.00000000  0.00000000  0.00815606  CHARGE =  8.0
  H    2    (CENTRE  2)   0.00000000 -1.44255835 -1.09730160  CHARGE =  1.0
  H    3    (CENTRE  3)   0.00000000  1.44255835 -1.00281530  CHARGE =  1.0
CENTRE ASSIGNMENTS    1  1  1  1  1  1  1  1  1  1  1  1  1  1  1  1  1  1  1  1
CENTRE ASSIGNMENTS    1  1  1  1  1  1  1  1  1  1  1  1  1  1  1  1  1  1  1  1
CENTRE ASSIGNMENTS    1  1  1  1  1  1  1  1  1  1  1  1  1  1  1  1  1  1  1  1
CENTRE ASSIGNMENTS    1  1  1  1  1  1  1  1  1  1  1  1  2  2  2  2  2  2  2  2
CENTRE ASSIGNMENTS    2  2  2  2  2  2  2  2  2  2  2  2  2  2  2  2  2  2  2  3
CENTRE ASSIGNMENTS    3  3  3  3  3  3  3  3  3  3  3  3  3  3  3  3  3  3  3  3
CENTRE ASSIGNMENTS    3  3  3  3  3  3
TYPE ASSIGNMENTS      1  1  1  1  1  1  1  1  1  1  1  1  1  1  1  1  2  2  2  3
TYPE ASSIGNMENTS      3  3  4  4  4  2  3  4  2  3  4  2  3  4  5  6  7  8  9 10
TYPE ASSIGNMENTS      5  6  7  8  9 10  5  6  7  8  9 10 11 12 13 17 14 15 18 19
TYPE ASSIGNMENTS     16 20 11 12 13 17 14 15 18 19 16 20  1  1  1  1  1  1  2  3
TYPE ASSIGNMENTS      4  2  3  4  2  3  4  5  6  7  8  9 10  5  6  7  8  9 10  1
TYPE ASSIGNMENTS      1  1  1  1  1  2  3  4  2  3  4  2  3  4  5  6  7  8  9 10
TYPE ASSIGNMENTS      5  6  7  8  9 10
EXPONENTS  0.1533000D+05 0.2299000D+04 0.5224000D+03 0.1473000D+03 0.4755000D+02
EXPONENTS  0.1676000D+02 0.6207000D+01 0.5224000D+03 0.1473000D+03 0.4755000D+02
EXPONENTS  0.1676000D+02 0.6207000D+01 0.6882000D+00 0.1752000D+01 0.2384000D+00
EXPONENTS  0.7376000D-01 0.3446000D+02 0.7749000D+01 0.2280000D+01 0.3446000D+02
EXPONENTS  0.7749000D+01 0.2280000D+01 0.3446000D+02 0.7749000D+01 0.2280000D+01
EXPONENTS  0.7156000D+00 0.7156000D+00 0.7156000D+00 0.2140000D+00 0.2140000D+00
EXPONENTS  0.2140000D+00 0.5974000D-01 0.5974000D-01 0.5974000D-01 0.2314000D+01
EXPONENTS  0.2314000D+01 0.2314000D+01 0.2314000D+01 0.2314000D+01 0.2314000D+01
EXPONENTS  0.6450000D+00 0.6450000D+00 0.6450000D+00 0.6450000D+00 0.6450000D+00
EXPONENTS  0.6450000D+00 0.2140000D+00 0.2140000D+00 0.2140000D+00 0.2140000D+00
EXPONENTS  0.2140000D+00 0.2140000D+00 0.1428000D+01 0.1428000D+01 0.1428000D+01
EXPONENTS  0.1428000D+01 0.1428000D+01 0.1428000D+01 0.1428000D+01 0.1428000D+01
EXPONENTS  0.1428000D+01 0.1428000D+01 0.5000000D+00 0.5000000D+00 0.5000000D+00
EXPONENTS  0.5000000D+00 0.5000000D+00 0.5000000D+00 0.5000000D+00 0.5000000D+00
EXPONENTS  0.5000000D+00 0.5000000D+00 0.3387000D+02 0.5095000D+01 0.1159000D+01
EXPONENTS  0.3258000D+00 0.1027000D+00 0.2526000D-01 0.1407000D+01 0.1407000D+01
EXPONENTS  0.1407000D+01 0.3880000D+00 0.3880000D+00 0.3880000D+00 0.1020000D+00
EXPONENTS  0.1020000D+00 0.1020000D+00 0.1057000D+01 0.1057000D+01 0.1057000D+01
EXPONENTS  0.1057000D+01 0.1057000D+01 0.1057000D+01 0.2470000D+00 0.2470000D+00
EXPONENTS  0.2470000D+00 0.2470000D+00 0.2470000D+00 0.2470000D+00 0.3387000D+02
EXPONENTS  0.5095000D+01 0.1159000D+01 0.3258000D+00 0.1027000D+00 0.2526000D-01
EXPONENTS  0.1407000D+01 0.1407000D+01 0.1407000D+01 0.3880000D+00 0.3880000D+00
EXPONENTS  0.3880000D+00 0.1020000D+00 0.1020000D+00 0.1020000D+00 0.1057000D+01
EXPONENTS  0.1057000D+01 0.1057000D+01 0.1057000D+01 0.1057000D+01 0.1057000D+01
EXPONENTS  0.2470000D+00 0.2470000D+00 0.2470000D+00 0.2470000D+00 0.2470000D+00
EXPONENTS  0.2470000D+00
MO    1     MO 0.0        OCC NO =    2.0000000  ORB. ENERGY =    0.000000
 -0.53903210D-01 -0.10046672D+00 -0.17035544D+00 -0.25781485D+00 -0.32160370D+00
 -0.27598382D+00 -0.10568714D+00 -0.85878073D-03 -0.92141537D-02 -0.33965105D-01
 -0.99311976D-01 -0.11967576D+00  0.14416213D+00  0.82222656D-01 -0.10643753D-02
 -0.44877178D-02  0.89995751D-01  0.87265606D-01  0.58868862D-01  0.31834363D-01
  0.30868624D-01  0.20823791D-01 -0.12430511D+01 -0.12053414D+01 -0.81311618D+00
  0.20314376D-01  0.42694561D-02 -0.27082230D+00  0.33181076D-02 -0.57939495D-03
 -0.30113464D-01  0.10540460D-03 -0.39882740D-05 -0.61272348D-03 -0.45588497D-01
  0.13867520D-01  0.31720976D-01  0.21155758D-03 -0.37104105D-02 -0.33093467D-02
 -0.70181233D-02 -0.27426671D-02  0.97607903D-02  0.64407304D-05 -0.92686512D-03
  0.96140769D-03  0.76650892D-03 -0.12872292D-02  0.52072029D-03 -0.42668003D-05
 -0.58652600D-04  0.30365459D-03 -0.54175750D-03  0.21528643D-03  0.24521653D-03
  0.11873866D-02  0.22638172D-03  0.17355833D-01  0.43788587D-03 -0.87224101D-03
 -0.18091482D-01  0.16844373D-04 -0.14470113D-04  0.37340218D-04 -0.69618897D-03
  0.17641131D-04  0.16747512D-03  0.32673181D-04  0.25769208D-04 -0.27949578D-03
  0.20558937D-02  0.21601366D-04  0.32356347D-01  0.58356004D-01  0.86045894D-01
  0.51673833D-01  0.55383289D-02  0.42710487D-04  0.12457380D-02  0.31578241D-01
  0.91584746D-02  0.67933135D-03  0.10564339D-01  0.11558223D-02  0.10508605D-03
 -0.25628622D-04 -0.90261849D-03 -0.41840293D-02  0.64574662D-02 -0.22734369D-02
  0.61608557D-03  0.45942486D-03  0.10029689D-01 -0.60477350D-04  0.13958712D-03
 -0.79109769D-04  0.65669370D-04  0.41032994D-04 -0.47521784D-03  0.33532334D-01
  0.60476944D-01  0.89173219D-01  0.54431099D-01  0.52669220D-02  0.38725048D-04
  0.13365158D-02 -0.35596720D-01  0.91011245D-02  0.72700906D-03 -0.11272121D-01
  0.52006710D-03  0.11013615D-03  0.11735455D-03 -0.97036902D-03 -0.47482207D-02
  0.77856754D-02 -0.30374547D-02 -0.67664869D-03  0.46193355D-03 -0.10905974D-01
  0.40914477D-04  0.76288729D-04 -0.11720321D-03 -0.72743787D-04  0.42772508D-04
  0.74501477D-03
MO    2     MO 0.0        OCC NO =    2.0000000  ORB. ENERGY =    0.000000
  0.48211545D+00  0.89858392D+00  0.15236753D+01  0.23059206D+01  0.28764542D+01
  0.24684256D+01  0.94527587D+00  0.48104582D-03  0.51613060D-02  0.19025546D-01
  0.55629580D-01  0.67036348D-01 -0.80752385D-01  0.70081736D-02 -0.28147367D-01
 -0.27060659D-02  0.44548837D+00  0.43197387D+00  0.29140702D+00 -0.20605935D+00
 -0.19980826D+00 -0.13478947D+00 -0.28667947D+00 -0.27798266D+00 -0.18752546D+00
  0.10055828D+00 -0.41189801D-01 -0.61241545D-01  0.16424980D-01 -0.33056281D-02
 -0.89240288D-02  0.52176377D-03 -0.20640357D-04 -0.18075777D-03 -0.43757375D-02
 -0.36406961D-02  0.80164336D-02  0.10472321D-02 -0.18366920D-01  0.18232497D-01
  0.35834146D-03 -0.24511933D-02  0.20928519D-02  0.31882289D-04 -0.45880792D-02
  0.16153247D-02  0.13756582D-03 -0.24547623D-03  0.10791041D-03 -0.21121107D-04
 -0.29033650D-03 -0.27684633D-03 -0.26817562D-02 -0.96758284D-03 -0.11513604D-03
  0.58776879D-02  0.15910517D-02  0.31983013D-02  0.21675808D-02  0.13116968D-02
 -0.28528932D-02  0.83381407D-04 -0.71628571D-04 -0.25189445D-04 -0.15447128D-03
  0.87325440D-04  0.93449665D-04 -0.23126158D-03  0.12756027D-03 -0.17881330D-04
  0.69467543D-03  0.10692902D-03  0.54467030D-02  0.98233532D-02  0.14484529D-01
  0.15985662D-01  0.35088786D-02  0.30878457D-04  0.61665335D-02  0.22880131D-02
 -0.62494534D-03  0.33627612D-02  0.26116831D-02  0.44729036D-03  0.52018692D-03
  0.11416251D-03 -0.17883177D-03 -0.26533109D-03  0.79221800D-03 -0.52688691D-03
  0.30496880D-02  0.22742011D-02  0.14128191D-03 -0.48279319D-04  0.72750915D-04
 -0.24471597D-04  0.32507024D-03  0.20311761D-03  0.12156639D-04 -0.58553222D-02
 -0.10560315D-01 -0.15571178D-01 -0.57383773D-02  0.68099015D-03  0.48470193D-04
  0.66158931D-02  0.55395935D-02 -0.96407436D-02  0.35987708D-02  0.48982937D-03
 -0.33325399D-02  0.54518545D-03 -0.91148615D-04 -0.28561350D-03  0.23292386D-02
 -0.10856234D-02 -0.12436151D-02 -0.33494817D-02  0.22866194D-02  0.75842048D-02
 -0.26103777D-04  0.89858193D-04 -0.63754415D-04 -0.36008935D-03  0.21172838D-03
  0.20974955D-03
MO    3     MO 0.0        OCC NO =    2.0000000  ORB. ENERGY =    0.000000
  0.38778938D-01  0.72277564D-01  0.12255677D+00  0.18547663D+00  0.23136748D+00
  0.19854772D+00  0.76033229D-01 -0.58023409D-04 -0.62255310D-03 -0.22948480D-02
 -0.67100008D-02 -0.80858773D-02  0.97402961D-02  0.11093847D-01  0.24644744D-02
  0.41970572D-03  0.52271410D+00  0.50685685D+00  0.34192263D+00  0.14005916D+01
  0.13581027D+01  0.91616807D+00  0.94239840D-01  0.91380945D-01  0.61645045D-01
  0.11799013D+00  0.28572915D+00  0.21928660D-01  0.19272261D-01  0.24684517D-01
  0.35312286D-02  0.61221189D-03  0.21429900D-03  0.62231255D-04  0.28536489D-03
  0.49329307D-02 -0.52182956D-02  0.12287706D-02 -0.21550839D-01 -0.12985021D+00
  0.44081418D-03  0.38525776D-03 -0.82607194D-03  0.37409106D-04 -0.53834260D-02
 -0.14984933D-01  0.10389103D-03 -0.94522467D-04 -0.93685579D-05 -0.24782466D-04
 -0.34066654D-03  0.15094970D-02 -0.31466406D-02  0.68450022D-02 -0.58362137D-04
  0.68965893D-02 -0.13482965D-01 -0.10052589D-02  0.25433325D-02 -0.70520413D-02
  0.11803453D-02  0.97835634D-04 -0.84045435D-04  0.12354999D-03 -0.71729861D-04
  0.10246337D-03 -0.61871691D-03 -0.19196055D-03  0.14967294D-03  0.24806693D-03
  0.40715013D-03  0.12546524D-03 -0.36744052D-01 -0.66269411D-01 -0.97714208D-01
 -0.69336297D-01 -0.87479468D-02  0.91956971D-04  0.72355065D-02 -0.21688428D-01
 -0.25921120D-01  0.39456982D-02 -0.84532154D-02 -0.10593096D-01  0.61036169D-03
  0.11978471D-03 -0.16276117D-03  0.72409663D-02 -0.43694631D-02 -0.28715032D-02
  0.35783535D-02  0.26684355D-02 -0.21230421D-01  0.53370955D-04  0.10095990D-03
 -0.15433085D-03  0.38142140D-03  0.23832819D-03 -0.60245179D-03  0.36569927D-01
  0.65955370D-01  0.97251154D-01  0.68054475D-01  0.74297394D-02 -0.10576238D-03
  0.77627628D-02 -0.24054391D-01  0.29011763D-01  0.42226203D-02 -0.79649161D-02
  0.10947743D-01  0.63969374D-03  0.27858351D-03  0.21238042D-03 -0.72652388D-02
  0.46983137D-02  0.25669251D-02 -0.39301168D-02  0.26830064D-02 -0.21849727D-01
  0.64169821D-04 -0.22158776D-03  0.15741794D-03 -0.42251109D-03  0.24843165D-03
 -0.38245646D-03
MO    4     MO 0.0        OCC NO =    2.0000000  ORB. ENERGY =    0.000000
 -0.12864470D+00 -0.23977257D+00 -0.40656809D+00 -0.61529757D+00 -0.76753522D+00
 -0.65865941D+00 -0.25223156D+00 -0.29916499D-03 -0.32098440D-02 -0.11832089D-01
 -0.34596335D-01 -0.41690266D-01  0.50220344D-01  0.15585615D-01  0.23629493D-01
  0.25238700D-02  0.16274508D+01  0.15780799D+01  0.10645633D+01 -0.40720403D+00
 -0.39485094D+00 -0.26636411D+00  0.27742233D+00  0.26900634D+00  0.18147009D+00
  0.36735787D+00 -0.83209856D-01  0.59089756D-01  0.60003466D-01 -0.72179800D-02
  0.77918880D-02  0.19060988D-02 -0.65637246D-04  0.15925623D-03  0.48300304D-02
  0.17794542D-02 -0.66094846D-02  0.38257313D-02 -0.67097731D-01  0.38022533D-01
 -0.15462311D-04  0.20020328D-02 -0.19865705D-02  0.11647185D-03 -0.16761096D-01
  0.45552802D-02 -0.19494901D-03  0.30843442D-03 -0.11348541D-03 -0.77159283D-04
 -0.10606525D-02 -0.44070517D-03 -0.97969479D-02 -0.19757429D-02  0.47785020D-03
  0.21472273D-01  0.39786422D-02 -0.25336034D-02  0.79185707D-02  0.19485866D-02
  0.11000528D-02  0.30460759D-03 -0.26167232D-03 -0.41501125D-04  0.11016287D-03
  0.31901587D-03  0.17674869D-03  0.10998338D-03  0.46600109D-03 -0.52245315D-04
 -0.44047198D-03  0.39063133D-03  0.85375664D-02  0.15397853D-01  0.22704125D-01
  0.11537201D-01  0.21637170D-03 -0.65277838D-04  0.22527479D-01  0.46897096D-02
  0.10505134D-01  0.12284784D-01  0.26604101D-03  0.37009229D-02  0.19003383D-02
 -0.16252968D-03  0.25340848D-03 -0.19212963D-02  0.19021744D-03  0.17310789D-02
  0.11141070D-01  0.83080741D-02  0.64397354D-02  0.28979128D-04 -0.11303740D-03
  0.84058271D-04  0.11875413D-02  0.74202592D-03  0.24529587D-03 -0.12318110D-01
 -0.22216219D-01 -0.32757802D-01 -0.27714836D-01 -0.42623741D-02 -0.46288715D-05
  0.24169072D-01  0.82671266D-02 -0.48521919D-02  0.13146971D-01  0.42989429D-02
 -0.21968151D-02  0.19916625D-02  0.87740712D-05  0.17426507D-03  0.21379151D-02
 -0.23446152D-02  0.20670011D-03 -0.12236272D-01  0.83534403D-02  0.54446994D-02
  0.75751896D-05 -0.24154306D-05 -0.51597590D-05 -0.13154725D-02  0.77348266D-03
 -0.17535296D-04
MO    5     MO 0.0        OCC NO =    2.0000000  ORB. ENERGY =    0.000000
  0.76548474D-01  0.14267377D+00  0.24192342D+00  0.36612538D+00  0.45671255D+00
  0.39192732D+00  0.15008734D+00 -0.13969636D-02 -0.14988503D-01 -0.55250443D-01
 -0.16154905D+00 -0.19467446D+00  0.23450602D+00  0.15316750D+00  0.99608029D-01
  0.99849435D-02 -0.27215617D+00 -0.26389993D+00 -0.17802534D+00 -0.71751620D-01
 -0.69574936D-01 -0.46934841D-01  0.95963285D+00  0.93052107D+00  0.62772401D+00
 -0.61432707D-01 -0.14810027D-01  0.20566442D+00 -0.10034290D-01 -0.13548253D-02
  0.28811041D-01 -0.31875406D-03 -0.16013773D-04  0.57335771D-03  0.71932598D-02
  0.18741507D-01 -0.25934767D-01 -0.63977133D-03  0.11220653D-01  0.67233660D-02
 -0.97998399D-03  0.77925225D-02 -0.68125385D-02 -0.19477414D-04  0.28029330D-02
  0.14212041D-02 -0.48758074D-03  0.83537207D-03 -0.34779133D-03  0.12903232D-04
  0.17737134D-03 -0.88900497D-04  0.16383290D-02 -0.18047471D-03  0.26379989D-02
 -0.35907761D-02  0.57495217D-03 -0.61068638D-02 -0.13242107D-02 -0.33528048D-04
 -0.18071328D-02 -0.50939072D-04  0.43759071D-04 -0.39759747D-04  0.37923931D-04
 -0.53348546D-04  0.76943100D-04 -0.78748345D-04 -0.77928666D-04  0.42336140D-04
 -0.35023448D-04 -0.65324694D-04  0.96311691D-04  0.17370210D-03  0.25612365D-03
 -0.20925416D-01 -0.79327622D-02 -0.14906702D-03 -0.37672366D-02  0.57546129D-03
  0.15039425D-01 -0.20543661D-02 -0.68762953D-02  0.28997724D-02 -0.31779074D-03
 -0.56344234D-03  0.61153486D-03  0.60036533D-03 -0.38225921D-02  0.32222267D-02
 -0.18631045D-02 -0.13893468D-02  0.12804453D-02  0.17677085D-03 -0.31679499D-03
  0.14002415D-03 -0.19859075D-03 -0.12408788D-03  0.17249275D-03 -0.19187968D-02
 -0.34606291D-02 -0.51026956D-02 -0.26416127D-01 -0.83621138D-02 -0.13866579D-03
 -0.40417578D-02  0.53294305D-03  0.13934562D-01 -0.21985482D-02  0.74836244D-02
  0.26070584D-02 -0.33306275D-03  0.47713290D-03  0.66158885D-03  0.10730529D-02
 -0.41991554D-02  0.31261025D-02  0.20462534D-02 -0.13969333D-02 -0.59890745D-03
  0.13934617D-03 -0.26771981D-03  0.12837365D-03  0.21998450D-03 -0.12934835D-03
 -0.24972452D-03
END DATA
 TOTAL ENERGY =    -76.465231046817 THE VIRIAL(-V/T)=   2.00523111
