 equilibirum_geometry
GAUSSIAN              5 MOL ORBITALS    126 PRIMITIVES        3 NUCLEI   B3LYP   B3LYP   B3LYP   B3LYP
  O    1    (CENTRE  1)   0.00000000  0.00000000  0.00815606  CHARGE =  8.0
  H    2    (CENTRE  2)   0.00000000 -1.44255835 -1.09730160  CHARGE =  1.0
  H    3    (CENTRE  3)   0.00000000  1.44255835 -1.09730160  CHARGE =  1.0
CENTRE ASSIGNMENTS    1  1  1  1  1  1  1  1  1  1  1  1  1  1  1  1  1  1  1  1
CENTRE ASSIGNMENTS    1  1  1  1  1  1  1  1  1  1  1  1  1  1  1  1  1  1  1  1
CENTRE ASSIGNMENTS    1  1  1  1  1  1  1  1  1  1  1  1  1  1  1  1  1  1  1  1
CENTRE ASSIGNMENTS    1  1  1  1  1  1  1  1  1  1  1  1  2  2  2  2  2  2  2  2
CENTRE ASSIGNMENTS    2  2  2  2  2  2  2  2  2  2  2  2  2  2  2  2  2  2  2  3
CENTRE ASSIGNMENTS    3  3  3  3  3  3  3  3  3  3  3  3  3  3  3  3  3  3  3  3
CENTRE ASSIGNMENTS    3  3  3  3  3  3
TYPE ASSIGNMENTS      1  1  1  1  1  1  1  1  1  1  1  1  1  1  1  1  2  2  2  3
TYPE ASSIGNMENTS      3  3  4  4  4  2  3  4  2  3  4  2  3  4  5  6  7  8  9 10
TYPE ASSIGNMENTS      5  6  7  8  9 10  5  6  7  8  9 10 11 12 13 17 14 15 18 19
TYPE ASSIGNMENTS     16 20 11 12 13 17 14 15 18 19 16 20  1  1  1  1  1  1  2  3
TYPE ASSIGNMENTS      4  2  3  4  2  3  4  5  6  7  8  9 10  5  6  7  8  9 10  1
TYPE ASSIGNMENTS      1  1  1  1  1  2  3  4  2  3  4  2  3  4  5  6  7  8  9 10
TYPE ASSIGNMENTS      5  6  7  8  9 10
EXPONENTS  0.1533000D+05 0.2299000D+04 0.5224000D+03 0.1473000D+03 0.4755000D+02
EXPONENTS  0.1676000D+02 0.6207000D+01 0.5224000D+03 0.1473000D+03 0.4755000D+02
EXPONENTS  0.1676000D+02 0.6207000D+01 0.6882000D+00 0.1752000D+01 0.2384000D+00
EXPONENTS  0.7376000D-01 0.3446000D+02 0.7749000D+01 0.2280000D+01 0.3446000D+02
EXPONENTS  0.7749000D+01 0.2280000D+01 0.3446000D+02 0.7749000D+01 0.2280000D+01
EXPONENTS  0.7156000D+00 0.7156000D+00 0.7156000D+00 0.2140000D+00 0.2140000D+00
EXPONENTS  0.2140000D+00 0.5974000D-01 0.5974000D-01 0.5974000D-01 0.2314000D+01
EXPONENTS  0.2314000D+01 0.2314000D+01 0.2314000D+01 0.2314000D+01 0.2314000D+01
EXPONENTS  0.6450000D+00 0.6450000D+00 0.6450000D+00 0.6450000D+00 0.6450000D+00
EXPONENTS  0.6450000D+00 0.2140000D+00 0.2140000D+00 0.2140000D+00 0.2140000D+00
EXPONENTS  0.2140000D+00 0.2140000D+00 0.1428000D+01 0.1428000D+01 0.1428000D+01
EXPONENTS  0.1428000D+01 0.1428000D+01 0.1428000D+01 0.1428000D+01 0.1428000D+01
EXPONENTS  0.1428000D+01 0.1428000D+01 0.5000000D+00 0.5000000D+00 0.5000000D+00
EXPONENTS  0.5000000D+00 0.5000000D+00 0.5000000D+00 0.5000000D+00 0.5000000D+00
EXPONENTS  0.5000000D+00 0.5000000D+00 0.3387000D+02 0.5095000D+01 0.1159000D+01
EXPONENTS  0.3258000D+00 0.1027000D+00 0.2526000D-01 0.1407000D+01 0.1407000D+01
EXPONENTS  0.1407000D+01 0.3880000D+00 0.3880000D+00 0.3880000D+00 0.1020000D+00
EXPONENTS  0.1020000D+00 0.1020000D+00 0.1057000D+01 0.1057000D+01 0.1057000D+01
EXPONENTS  0.1057000D+01 0.1057000D+01 0.1057000D+01 0.2470000D+00 0.2470000D+00
EXPONENTS  0.2470000D+00 0.2470000D+00 0.2470000D+00 0.2470000D+00 0.3387000D+02
EXPONENTS  0.5095000D+01 0.1159000D+01 0.3258000D+00 0.1027000D+00 0.2526000D-01
EXPONENTS  0.1407000D+01 0.1407000D+01 0.1407000D+01 0.3880000D+00 0.3880000D+00
EXPONENTS  0.3880000D+00 0.1020000D+00 0.1020000D+00 0.1020000D+00 0.1057000D+01
EXPONENTS  0.1057000D+01 0.1057000D+01 0.1057000D+01 0.1057000D+01 0.1057000D+01
EXPONENTS  0.2470000D+00 0.2470000D+00 0.2470000D+00 0.2470000D+00 0.2470000D+00
EXPONENTS  0.2470000D+00
MO    1     MO 0.0        OCC NO =    2.0000000  ORB. ENERGY =    0.000000
  0.28573863D-01  0.53256982D-01  0.90304698D-01  0.13666656D+00  0.17048076D+00
  0.14629785D+00  0.56024306D-01 -0.57097087D-03 -0.61261427D-02 -0.22582116D-01
 -0.66028781D-01 -0.79567892D-01  0.95847958D-01  0.61933621D-01 -0.17949316D-01
 -0.62290325D-02 -0.99391971D-02 -0.96376778D-02 -0.65015205D-02  0.36801098D-01
  0.35684685D-01  0.24072678D-01 -0.13837929D+01 -0.13418136D+01 -0.90517952D+00
 -0.22446354D-02  0.76107601D-02 -0.30144489D+00 -0.36906220D-03  0.71464413D-03
 -0.34849748D-01 -0.11824005D-04  0.70550535D-05 -0.68627932D-03 -0.46100061D-01
  0.91032528D-02  0.36996809D-01  0.39693456D-14  0.40718816D-03 -0.34477198D-02
 -0.70322349D-02 -0.40421150D-02  0.11074350D-01 -0.31526921D-14  0.10489608D-03
 -0.44747770D-03  0.73098808D-03 -0.12872222D-02  0.55623415D-03 -0.51760639D-15
  0.69352672D-05  0.26204929D-04  0.59557530D-04  0.17263718D-03 -0.57152241D-03
 -0.12505216D-03 -0.37435812D-03  0.18605431D-01 -0.53620426D-04 -0.14355341D-03
 -0.16890864D-01  0.50971015D-14  0.20954977D-05  0.30573590D-05 -0.70412333D-03
 -0.30753525D-05 -0.21384202D-04  0.20643330D-03 -0.32111406D-05  0.12212125D-04
  0.19059367D-02  0.21129757D-14  0.31373532D-01  0.56583458D-01  0.83432275D-01
  0.53977709D-01  0.68210625D-02  0.73030838D-04 -0.13797198D-03  0.30843739D-01
  0.61726850D-02 -0.75103753D-04  0.11642637D-01  0.54697333D-03 -0.11585727D-04
  0.87258974D-04 -0.95740586D-03 -0.41308003D-02  0.69553251D-02 -0.28245249D-02
 -0.68658076D-04 -0.50820846D-04  0.93016217D-02 -0.82439036D-04  0.19573486D-03
 -0.11329583D-03 -0.72012912D-05 -0.44744825D-05 -0.46751213D-03  0.33266004D-01
  0.59996609D-01  0.88464965D-01  0.57478661D-01  0.72421816D-02  0.67146751D-04
 -0.13797198D-03 -0.31905208D-01  0.75736856D-02 -0.75103753D-04 -0.12030021D-01
  0.11080067D-02 -0.11585727D-04 -0.73714601D-04 -0.94766309D-03 -0.44910784D-02
  0.71402878D-02 -0.26492094D-02  0.68658076D-04 -0.50820846D-04 -0.10373545D-01
 -0.85284451D-04  0.18828746D-03 -0.10300301D-03  0.72012912D-05 -0.44744825D-05
  0.43792772D-03
MO    2     MO 0.0        OCC NO =    2.0000000  ORB. ENERGY =    0.000000
  0.46590312D-01  0.86836680D-01  0.14724379D+00  0.22283783D+00  0.27797262D+00
  0.23854187D+00  0.91348862D-01  0.12983212D-03  0.13930134D-02  0.51349097D-02
  0.15014175D-01  0.18092811D-01 -0.21794708D-01 -0.78972571D-02 -0.62022950D-02
 -0.42056240D-03  0.54867617D+00  0.53203132D+00  0.35890518D+00  0.13918088D+01
  0.13495864D+01  0.91042298D+00 -0.74262322D-02 -0.72009472D-02 -0.48577165D-02
  0.12391121D+00  0.28783715D+00 -0.12647026D-02  0.20373440D-01  0.27027672D-01
 -0.49636924D-03  0.65272369D-03  0.26682045D-03 -0.94017422D-05  0.12191836D-02
 -0.14048014D-02  0.18561781D-03  0.43706772D-14 -0.22478118D-01 -0.13039195D+00
  0.39757330D-03 -0.39807671D-03  0.50340675D-06 -0.10869310D-15 -0.57906067D-02
 -0.16923501D-01  0.51563878D-05 -0.53751782D-05  0.21879039D-06 -0.14367592D-14
 -0.38284942D-03  0.99106422D-03 -0.32877703D-02  0.65290972D-02 -0.12155621D-03
  0.69032881D-02 -0.14158136D-01 -0.24241987D-03  0.29600228D-02 -0.54291558D-02
  0.60708851D-03 -0.47615647D-14 -0.11567832D-03  0.11562860D-03  0.79824959D-05
  0.16976951D-03 -0.80874545D-03 -0.33328705D-04  0.17726546D-03  0.46185966D-03
  0.93812176D-05  0.13154746D-14 -0.37094267D-01 -0.66901039D-01 -0.98645543D-01
 -0.67009403D-01 -0.77072765D-02  0.11841442D-03  0.76165045D-02 -0.21501475D-01
 -0.27796525D-01  0.41459726D-02 -0.74112983D-02 -0.10855177D-01  0.63957002D-03
  0.28509715D-03 -0.18793022D-03  0.70471429D-02 -0.36375530D-02 -0.34095899D-02
  0.37901502D-02  0.28054768D-02 -0.21022871D-01  0.47503671D-04  0.15107949D-03
 -0.19858316D-03  0.39753481D-03  0.24700606D-03 -0.55450620D-03  0.34478574D-01
  0.62183528D-01  0.91689575D-01  0.65395785D-01  0.82193463D-02 -0.10412035D-03
  0.76165045D-02 -0.18643056D-01  0.25188988D-01  0.41459726D-02 -0.72394978D-02
  0.10362971D-01  0.63957002D-03  0.22714783D-03  0.18053900D-03 -0.65784916D-02
  0.33576915D-02  0.32208001D-02 -0.37901502D-02  0.28054768D-02 -0.19516999D-01
 -0.60109254D-04 -0.13057933D-03  0.19068858D-03 -0.39753481D-03  0.24700606D-03
 -0.56436925D-03
MO    3     MO 0.0        OCC NO =    2.0000000  ORB. ENERGY =    0.000000
  0.49491436D+00  0.92243899D+00  0.15641249D+01  0.23671368D+01  0.29528165D+01
  0.25339559D+01  0.97037048D+00  0.68087608D-03  0.73053535D-02  0.26928908D-01
  0.78738549D-01  0.94883780D-01 -0.11429757D+00 -0.11856200D-01 -0.33176453D-01
 -0.24634604D-02 -0.28324699D+00 -0.27465430D+00 -0.18528017D+00 -0.76957680D-01
 -0.74623062D-01 -0.50340277D-01 -0.11233094D+00 -0.10892323D+00 -0.73478967D-01
 -0.63967563D-01 -0.15915461D-01 -0.22184630D-01 -0.10517525D-01 -0.14944487D-02
 -0.44649168D-02 -0.33696019D-03 -0.14753379D-04 -0.88221284D-04  0.28759286D-02
 -0.57927720D-02  0.29168435D-02 -0.72907229D-14  0.11604038D-01  0.72097991D-02
  0.18056014D-02 -0.24054946D-02  0.59989320D-03  0.57805537D-15  0.29893260D-02
  0.93575594D-03  0.81043436D-04 -0.11399917D-03  0.32955729D-04  0.49257794D-15
  0.19764107D-03 -0.54799196D-04  0.16972690D-02 -0.36101523D-03 -0.41792178D-03
 -0.35637334D-02  0.78284982D-03  0.29572264D-03 -0.15280736D-02  0.30019586D-03
  0.95804270D-03  0.15647049D-14  0.59717442D-04 -0.63934848D-05 -0.62884713D-04
 -0.87641320D-04  0.44718192D-04 -0.30626758D-03 -0.91511007D-04 -0.25537738D-04
  0.49492172D-03 -0.27055602D-15 -0.33012808D-02 -0.59539958D-02 -0.87791633D-02
  0.18340237D-02  0.20265047D-02  0.34428582D-04 -0.39319222D-02 -0.51621608D-02
 -0.52230763D-02 -0.21403049D-02  0.21329720D-03 -0.88963039D-03 -0.33016977D-03
  0.11763536D-03 -0.79797078D-04  0.11453549D-02 -0.65552847D-03 -0.48982645D-03
 -0.19566161D-02 -0.14482912D-02 -0.37659195D-02 -0.33967367D-04  0.50607179D-04
 -0.16639812D-04 -0.20522222D-03 -0.12751369D-03  0.92246928D-05 -0.72587782D-02
 -0.13091505D-01 -0.19303417D-01 -0.54870940D-02  0.11458694D-02  0.46733260D-04
 -0.39319222D-02  0.73818838D-02 -0.81528194D-02 -0.21403049D-02  0.59679344D-03
 -0.20628515D-02 -0.33016977D-03 -0.14595907D-03 -0.10017095D-03  0.18987610D-02
 -0.10423185D-02 -0.85644249D-03  0.19566161D-02 -0.14482912D-02  0.60075021D-02
 -0.28017095D-04  0.66181020D-04 -0.38163925D-04  0.20522222D-03 -0.12751369D-03
  0.52641606D-04
MO    4     MO 0.0        OCC NO =    2.0000000  ORB. ENERGY =    0.000000
  0.62052055D-01  0.11565483D+00  0.19610901D+00  0.29679014D+00  0.37022230D+00
  0.31770582D+00  0.12166445D+00  0.18033147D-03  0.19348383D-02  0.71321783D-02
  0.20854071D-01  0.25130169D-01 -0.30271952D-01 -0.11301772D-01 -0.11127598D-01
 -0.10240453D-02  0.16764728D+01  0.16256147D+01  0.10966301D+01 -0.46944028D+00
 -0.45519916D+00 -0.30707467D+00 -0.85663805D-01 -0.83065075D-01 -0.56035209D-01
  0.37860907D+00 -0.97083989D-01 -0.18110410D-01  0.62250777D-01 -0.91161070D-02
 -0.26630064D-02  0.19943887D-02 -0.89995313D-04 -0.51688162D-04 -0.38473366D-03
 -0.18855658D-02  0.22702994D-02  0.56671136D-14 -0.68681593D-01  0.43979628D-01
  0.27149386D-03 -0.85993972D-03  0.58844586D-03 -0.90143751D-15 -0.17693123D-01
  0.57080922D-02  0.46308102D-04 -0.76066506D-04  0.29758404D-04 -0.27732622D-14
 -0.11697914D-02 -0.33427398D-03 -0.10045739D-01 -0.22021855D-02 -0.24518193D-03
  0.21092906D-01  0.47753680D-02  0.55467828D-03  0.90443107D-02  0.18311886D-02
  0.18086752D-03 -0.84817036D-14 -0.35345360D-03 -0.39000127D-04 -0.20070006D-04
  0.51872851D-03  0.27278006D-03 -0.34598120D-04  0.54163228D-03 -0.15577968D-03
  0.94808138D-04  0.38887108D-14  0.11654308D-01  0.21019024D-01  0.30992538D-01
  0.24003356D-01  0.34868288D-02 -0.22065232D-04  0.23272129D-01  0.61245025D-02
  0.71797109D-02  0.12667965D-01  0.29821792D-02  0.32338319D-02  0.19541978D-02
 -0.33127044D-04  0.67623777D-05 -0.21762015D-02  0.13558737D-02  0.82032779D-03
  0.11580754D-01  0.85720976D-02  0.62188758D-02 -0.33334020D-04 -0.20167724D-04
  0.53501744D-04  0.12146624D-02  0.75472378D-03  0.17420809D-03 -0.12486346D-01
 -0.22519640D-01 -0.33205196D-01 -0.20655313D-01 -0.18850286D-02  0.52993055D-04
  0.23272129D-01  0.74157625D-02 -0.10691662D-01  0.12667965D-01  0.19593573D-02
 -0.39227931D-02  0.19541978D-02 -0.13964700D-03 -0.11751784D-03  0.24195603D-02
 -0.10035377D-02 -0.14160226D-02 -0.11580754D-01  0.85720976D-02  0.74547325D-02
  0.29625184D-05  0.74832391D-04 -0.77794909D-04 -0.12146624D-02  0.75472378D-03
  0.20317508D-03
MO    5     MO 0.0        OCC NO =    2.0000000  ORB. ENERGY =    0.000000
  0.86512060D-01  0.16124426D+00  0.27341229D+00  0.41378043D+00  0.51615848D+00
  0.44294076D+00  0.16962278D+00 -0.14825834D-02 -0.15907147D-01 -0.58636738D-01
 -0.17145038D+00 -0.20660605D+00  0.24887888D+00  0.16337202D+00  0.99297104D-01
  0.94491912D-02  0.12570995D+00  0.12189637D+00  0.82230568D-01  0.15267694D-01
  0.14804528D-01  0.99870468D-02  0.81231793D+00  0.78767514D+00  0.53136100D+00
  0.28389919D-01  0.31574808D-02  0.17322155D+00  0.46678610D-02  0.29648485D-03
  0.24864787D-01  0.14954880D-03  0.29269344D-05  0.47731171D-03  0.26446521D-02
  0.18944996D-01 -0.21589649D-01  0.12274516D-14 -0.51500743D-02 -0.14303577D-02
 -0.18435666D-02  0.74660461D-02 -0.56224795D-02 -0.11947964D-14 -0.13267150D-02
 -0.18564535D-03 -0.39967177D-03  0.67925241D-03 -0.27958064D-03 -0.43571923D-15
 -0.87716551D-04  0.10871655D-04 -0.75327756D-03  0.71622092D-04  0.28134629D-02
  0.15816470D-02 -0.15531019D-03 -0.42017951D-02  0.67818567D-03 -0.59556091D-04
 -0.42385935D-02 -0.43845074D-14 -0.26503641D-04  0.12684084D-05  0.35452150D-04
  0.38896745D-04 -0.88716771D-05 -0.66885039D-04  0.40614179D-04  0.50664517D-05
 -0.39471413D-04  0.15185758D-14  0.15222367D-02  0.27454166D-02  0.40481151D-02
 -0.19239008D-01 -0.77557702D-02 -0.13922324D-03  0.17450556D-02  0.29765388D-02
  0.14291879D-01  0.94990460D-03 -0.60218408D-02  0.22909650D-02  0.14653510D-03
 -0.53060460D-03  0.47456674D-03  0.51789680D-03 -0.31325515D-02  0.26146547D-02
  0.86838033D-03  0.64277687D-03  0.10718129D-02  0.15415577D-03 -0.26094431D-03
  0.10678854D-03  0.91081197D-04  0.56592798D-04  0.80784273D-04  0.23073677D-02
  0.41614327D-02  0.61360301D-02 -0.17786566D-01 -0.75810603D-02 -0.14166438D-03
  0.17450556D-02 -0.34169114D-02  0.14873113D-01  0.94990460D-03  0.58611262D-02
  0.25237213D-02  0.14653510D-03  0.53622376D-03  0.47860873D-03  0.36842798D-03
 -0.30558159D-02  0.26873879D-02 -0.86838033D-03  0.64277687D-03 -0.15165223D-02
  0.15297529D-03 -0.26403402D-03  0.11105873D-03 -0.91081197D-04  0.56592798D-04
 -0.93057977D-04
END DATA
 TOTAL ENERGY =    -76.466196533429 THE VIRIAL(-V/T)=   2.00596268
