 Entering Gaussian System, Link 0=/home/leo/programas/chemistry/gaussian/g09/g09
 Input=molecule.gjf
 Output=molecule.log
No executable for file l1.exe.

Search path GAUSS_EXEDIR is ""

